#     Step Nr.          Time[fs]        Kin.[a.u.]          Temp[K]            Pot.[a.u.]        Cons Qty[a.u.]        UsedTime[s]
       300          300.000000         0.008446792       444.547107626      -110.456929604      -110.002119065        10.857467890
       301          301.000000         0.009669734       508.909466071      -110.457242744      -110.002123049        10.766022205
       302          302.000000         0.009851734       518.487952147      -110.457543956      -110.002127383        10.787873983
       303          303.000000         0.009467444       498.263114326      -110.457784530      -110.002131265        10.807282925
       304          304.000000         0.009456032       497.662537625      -110.457935935      -110.002131067        10.803647995
       305          305.000000         0.008935523       470.268582293      -110.458004958      -110.002128608        10.919770002
       306          306.000000         0.008962881       471.708406717      -110.458017442      -110.002126473        10.874428988
       307          307.000000         0.009075231       477.621287445      -110.458010494      -110.002124873        10.789402008
       308          308.000000         0.010303980       542.289281976      -110.457992596      -110.002124428        10.854742050
       309          309.000000         0.012101814       636.907649637      -110.457939539      -110.002125639         9.357439041
       310          310.000000         0.011542615       607.477532742      -110.457826225      -110.002127279         9.237911940
       311          311.000000         0.011708529       616.209452527      -110.457636023      -110.002125398         9.296288967
       312          312.000000         0.010326898       543.495453892      -110.457391829      -110.002122369         9.327671051
       313          313.000000         0.010572944       556.444594436      -110.457169345      -110.002119954         9.275625944
       314          314.000000         0.009944752       523.383426221      -110.457000472      -110.002117914        10.286195993
       315          315.000000         0.009864123       519.139988944      -110.456934019      -110.002116337        10.070945024
       316          316.000000         0.009974579       524.953216823      -110.456996057      -110.002115681        10.009810925
       317          317.000000         0.010465866       550.809195410      -110.457194544      -110.002116066        10.031149149
       318          318.000000         0.010241958       539.025112837      -110.457507546      -110.002117131        10.089382887
       319          319.000000         0.011893424       625.940312064      -110.457944332      -110.002118961        10.038917065
       320          320.000000         0.012625773       664.483177520      -110.458466513      -110.002122363        10.116932869
       321          321.000000         0.011524843       606.542189289      -110.458984497      -110.002127581        10.138269186
       322          322.000000         0.011014764       579.697202964      -110.459462731      -110.002133823        10.790274858
       323          323.000000         0.011407489       600.365973494      -110.459819015      -110.002137090        10.880182981
       324          324.000000         0.012486638       657.160612078      -110.460023154      -110.002135081        10.852564096
       325          325.000000         0.011709255       616.247637486      -110.460093095      -110.002129943        10.801378012
       326          326.000000         0.011831458       622.679100936      -110.460064321      -110.002127840        10.853448868
       327          327.000000         0.012210512       642.628336969      -110.459951096      -110.002130774        10.810718060
       328          328.000000         0.010361563       545.319794902      -110.459751692      -110.002134528        10.825856924
       329          329.000000         0.009002877       473.813404831      -110.459443690      -110.002135665        10.829128027
       330          330.000000         0.007847166       412.989366337      -110.459036627      -110.002133671        10.876315117
       331          331.000000         0.006834522       359.694798902      -110.458593210      -110.002129980        10.757427931
       332          332.000000         0.006569534       345.748739255      -110.458155954      -110.002126342        10.844306946
       333          333.000000         0.005712295       300.632971790      -110.457798697      -110.002123933        10.773972034
       334          334.000000         0.004346600       228.757666615      -110.457560263      -110.002122807        10.879531145
       335          335.000000         0.004137076       217.730610542      -110.457474141      -110.002122776        10.885907888
       336          336.000000         0.004203361       221.219142955      -110.457531462      -110.002123675        14.593368053
       337          337.000000         0.004812580       253.281780127      -110.457723659      -110.002125266        10.041930914
       338          338.000000         0.005131241       270.052632060      -110.458038216      -110.002127149        10.742305040
       339          339.000000         0.005882774       309.605135641      -110.458401751      -110.002128202        10.821563005
       340          340.000000         0.005861642       308.493007714      -110.458850130      -110.002128707        10.836842060
       341          341.000000         0.006479651       341.018266034      -110.459358880      -110.002128679        10.780411959
       342          342.000000         0.008043433       423.318700747      -110.459887173      -110.002128732        11.334009886
       343          343.000000         0.007691192       404.780563157      -110.460457500      -110.002129346        10.803261042
       344          344.000000         0.006271393       330.057795570      -110.461013010      -110.002131035        10.835440159
       345          345.000000         0.005565842       292.925296888      -110.461483602      -110.002133047        10.039543867
       346          346.000000         0.006167151       324.571676321      -110.461940666      -110.002134981        10.083980083
       347          347.000000         0.006007745       316.182252530      -110.462379067      -110.002136312        10.035938025
       348          348.000000         0.006604699       347.599396169      -110.462768015      -110.002136810        10.095669985
       349          349.000000         0.006168049       324.618916418      -110.463112348      -110.002136881        10.087287903
       350          350.000000         0.006246296       328.736980972      -110.463412248      -110.002137204        10.061768055
       351          351.000000         0.005665212       298.155048190      -110.463662363      -110.002138150        10.052543879
       352          352.000000         0.005683496       299.117328034      -110.463859434      -110.002139407        10.013916016
       353          353.000000         0.005855808       308.185954556      -110.464021608      -110.002141149        10.006937981
       354          354.000000         0.005681094       298.990895338      -110.464109886      -110.002142199        10.077625036
       355          355.000000         0.006693835       352.290563227      -110.464123607      -110.002141836         9.995155096
       356          356.000000         0.007614334       400.735593756      -110.464046373      -110.002139399        10.029039860
       357          357.000000         0.006755793       355.551351199      -110.463890729      -110.002137181        10.104367018
       358          358.000000         0.007591658       399.542166995      -110.463678557      -110.002136021        10.024708986
       359          359.000000         0.007614357       400.736817773      -110.463411731      -110.002135808         9.999534130
       360          360.000000         0.007437159       391.411044279      -110.463099389      -110.002135903        10.087118864
       361          361.000000         0.006415482       337.641115993      -110.462737991      -110.002135777        10.029321194
       362          362.000000         0.006720470       353.692352858      -110.462342943      -110.002135326        10.027199984
       363          363.000000         0.005677072       298.779215912      -110.461898995      -110.002134634        10.111613035
       364          364.000000         0.005744572       302.331702091      -110.461470329      -110.002133794        10.066008806
       365          365.000000         0.005554795       292.343903321      -110.460988997      -110.002132639        10.031521082
       366          366.000000         0.005092204       267.998143593      -110.460483155      -110.002131277        10.126302004
       367          367.000000         0.003493868       183.879131312      -110.460013484      -110.002130007        10.053569078
       368          368.000000         0.002843759       149.664518551      -110.459656798      -110.002129211        10.273087978
       369          369.000000         0.003059114       160.998447540      -110.459346558      -110.002128734        10.116508961
       370          370.000000         0.003157420       166.172194908      -110.459070870      -110.002128656        10.031068087
       371          371.000000         0.003567707       187.765218612      -110.458844135      -110.002128941         9.239868879
       372          372.000000         0.003521135       185.314213700      -110.458648127      -110.002129362         9.304239988
       373          373.000000         0.003401336       179.009263101      -110.458488326      -110.002129438         9.382386923
       374          374.000000         0.003023701       159.134706181      -110.458364639      -110.002128933         9.993108988
       375          375.000000         0.004362797       229.610106957      -110.458268349      -110.002127658        10.032313108
       376          376.000000         0.004785928       251.879140879      -110.458209809      -110.002125791        10.256155968
       377          377.000000         0.003939392       207.326710171      -110.458202808      -110.002123590        10.038986921
       378          378.000000         0.005432740       285.920259560      -110.458272348      -110.002121902        10.623719215
       379          379.000000         0.005748020       302.513183242      -110.458452769      -110.002120302        10.865270853
       380          380.000000         0.006179458       325.219379994      -110.458717773      -110.002119578        10.754187107
       381          381.000000         0.007375656       388.174192490      -110.459138646      -110.002119878        10.865284920
       382          382.000000         0.008335785       438.704918664      -110.459651622      -110.002121870        10.762141943
       383          383.000000         0.009777543       514.583358590      -110.460270260      -110.002126182        10.796163082
       384          384.000000         0.009145153       481.301252433      -110.460887911      -110.002129654        10.788060904
       385          385.000000         0.010790036       567.869989165      -110.461491266      -110.002129624        10.028091192
       386          386.000000         0.011982972       630.653123288      -110.462098523      -110.002125715         9.990117788
       387          387.000000         0.011246596       591.898313974      -110.462685370      -110.002124579        10.225635052
       388          388.000000         0.010503900       552.810897502      -110.463230282      -110.002129142        10.042039156
       389          389.000000         0.011499469       605.206786494      -110.463733343      -110.002136185        10.054404974
       390          390.000000         0.014217471       748.252834419      -110.464126882      -110.002139941        10.086293936
       391          391.000000         0.014576361       767.140875031      -110.464307074      -110.002137170        10.032115936
       392          392.000000         0.015172619       798.521419796      -110.464279593      -110.002134940        10.036916971
       393          393.000000         0.014539915       765.222751624      -110.464039368      -110.002138553        10.140012980
       394          394.000000         0.015210346       800.506958495      -110.463554137      -110.002143741        10.519426107
       395          395.000000         0.013920580       732.627719984      -110.462762014      -110.002142830        10.033024073
       396          396.000000         0.013230070       696.286781571      -110.461678085      -110.002133064        10.103586912
       397          397.000000         0.010749772       565.750902095      -110.460465038      -110.002125911        10.050766945
       398          398.000000         0.008801420       463.210892321      -110.459261489      -110.002122431        10.030569077
       399          399.000000         0.007462405       392.739727933      -110.458131108      -110.002120841        10.114408970
       400          400.000000         0.006962162       366.412380088      -110.456997486      -110.002119225        10.050374985
       401          401.000000         0.005554434       292.324880535      -110.455903057      -110.002116487        10.309212923
       402          402.000000         0.005179655       272.600619406      -110.454933250      -110.002112887        10.086770058
       403          403.000000         0.003515744       185.030477069      -110.454256236      -110.002110029        10.024163961
       404          404.000000         0.003346096       176.102064149      -110.453783589      -110.002107994        10.004305124
       405          405.000000         0.003451539       181.651416729      -110.453561194      -110.002107231        10.067400932
       406          406.000000         0.003362487       176.964694658      -110.453603336      -110.002107879        10.013679981
       407          407.000000         0.004429673       233.129733386      -110.453902213      -110.002109513        10.062623024
       408          408.000000         0.007072595       372.224345561      -110.454508783      -110.002112454        10.904549122
       409          409.000000         0.007106472       374.007299341      -110.455350523      -110.002115750        10.787062883
       410          410.000000         0.007576572       398.748244536      -110.456275938      -110.002118447        10.800396919
       411          411.000000         0.007374726       388.125268039      -110.457195569      -110.002121009        10.871803999
       412          412.000000         0.009244822       486.546747459      -110.458218769      -110.002124359        10.793290138
       413          413.000000         0.009896834       520.861550021      -110.459216521      -110.002127985        10.938009024
       414          414.000000         0.010583847       557.018431374      -110.460227541      -110.002131598        10.797199965
       415          415.000000         0.011365366       598.149092618      -110.461113971      -110.002133818        10.795829058
       416          416.000000         0.012144402       639.149019792      -110.461869739      -110.002134627        10.819344997
       417          417.000000         0.012235654       643.951572491      -110.462462703      -110.002135549        10.803725004
       418          418.000000         0.012133323       638.565951068      -110.462899513      -110.002137306        10.759637833
       419          419.000000         0.011739401       617.834180566      -110.463157623      -110.002139706        10.848580122
       420          420.000000         0.010098345       531.466892005      -110.463206624      -110.002140535        10.741047859
       421          421.000000         0.011038463       580.944460330      -110.463086565      -110.002139666        10.833051205
       422          422.000000         0.008591030       452.138260745      -110.462798193      -110.002137357        11.018376827
       423          423.000000         0.007473450       393.321002038      -110.462434332      -110.002135059        10.788086176
       424          424.000000         0.005853827       308.081683216      -110.462054888      -110.002133310        11.701944828
       425          425.000000         0.004989650       262.600803031      -110.461704782      -110.002132224        10.069735050
       426          426.000000         0.003644619       191.813053860      -110.461404911      -110.002131625        10.017092943
       427          427.000000         0.002396104       126.104830199      -110.461199887      -110.002131355         9.337185144
       428          428.000000         0.002871872       151.144049767      -110.461077391      -110.002131340         9.341182947
       429          429.000000         0.002847846       149.879603878      -110.461020198      -110.002131484         9.992297888
       430          430.000000         0.002585446       136.069735042      -110.461032257      -110.002131686        10.325680017
       431          431.000000         0.002971554       156.390256313      -110.461109768      -110.002131797         9.248953104
       432          432.000000         0.004247598       223.547299552      -110.461236804      -110.002131901         9.288006067
       433          433.000000         0.003790340       199.482200467      -110.461409404      -110.002132116         9.499207973
       434          434.000000         0.005017148       264.048030314      -110.461626009      -110.002132554         9.503381968
       435          435.000000         0.005145628       270.809796352      -110.461855048      -110.002133519        10.726866007
       436          436.000000         0.005607529       295.119242990      -110.462073470      -110.002134988         9.503498077
       437          437.000000         0.005794274       304.947471074      -110.462263196      -110.002136717         9.488906860
       438          438.000000         0.005385370       283.427210628      -110.462414475      -110.002138854         9.441534996
       439          439.000000         0.004479913       235.773801041      -110.462483382      -110.002140541         9.491256952
       440          440.000000         0.004595841       241.875028120      -110.462464900      -110.002141290         9.440241098
       441          441.000000         0.003733328       196.481744929      -110.462381641      -110.002141042         9.423412085
       442          442.000000         0.004231751       222.713291411      -110.462240018      -110.002140040        10.220626831
       443          443.000000         0.004919360       258.901534989      -110.462025469      -110.002138143        10.206582069
       444          444.000000         0.004605629       242.390155646      -110.461778763      -110.002135930        10.180052042
       445          445.000000         0.005083867       267.559362016      -110.461496807      -110.002133461        10.216413975
       446          446.000000         0.004126262       217.161483684      -110.461215202      -110.002131285        10.171900034
       447          447.000000         0.004240867       223.193030127      -110.460970514      -110.002129685        10.619300842
       448          448.000000         0.003960797       208.453193350      -110.460814450      -110.002128794        12.365342140
       449          449.000000         0.002815343       148.168971665      -110.460756165      -110.002128463        16.172528028
       450          450.000000         0.002758175       145.160265394      -110.460806342      -110.002128630        14.360932827
       451          451.000000         0.003804350       200.219544166      -110.460973334      -110.002129354        15.397257090
       452          452.000000         0.004950141       260.521494368      -110.461258836      -110.002130686        10.018165112
       453          453.000000         0.004392661       231.181814784      -110.461605403      -110.002132238        11.917964935
       454          454.000000         0.005533154       291.204956944      -110.461987038      -110.002133647        11.777467966
       455          455.000000         0.005888999       309.932767439      -110.462379671      -110.002134656        11.607572079
       456          456.000000         0.006527161       343.518684494      -110.462782065      -110.002135500        10.732653856
       457          457.000000         0.006398548       336.749855981      -110.463131602      -110.002136308        11.003308058
       458          458.000000         0.006874919       361.820839795      -110.463431358      -110.002137137        12.399061918
       459          459.000000         0.007546625       397.172158601      -110.463686093      -110.002138010        10.754800081
       460          460.000000         0.008145663       428.699003564      -110.463879546      -110.002138881        10.196063042
       461          461.000000         0.009870950       519.499286725      -110.463979018      -110.002139058        10.416217089
       462          462.000000         0.007850975       413.189801095      -110.463962246      -110.002138286        11.154147863
       463          463.000000         0.007811930       411.134911886      -110.463857537      -110.002137442        10.940521002
       464          464.000000         0.006532038       343.775326951      -110.463686402      -110.002136599        10.571064949
       465          465.000000         0.005919510       311.538541410      -110.463485696      -110.002135794        10.362739086
       466          466.000000         0.005650723       297.392534092      -110.463265968      -110.002134905        10.562712908
       467          467.000000         0.004999473       263.117802957      -110.463054863      -110.002134006        10.693106174
       468          468.000000         0.004692685       246.971839305      -110.462858591      -110.002133134        10.434887886
       469          469.000000         0.004306844       226.665335224      -110.462687891      -110.002132442        10.542351961
       470          470.000000         0.004517878       237.771901887      -110.462548790      -110.002132075        10.405321121
       471          471.000000         0.004158719       218.869676717      -110.462461810      -110.002132139        10.280388832
       472          472.000000         0.005558607       292.544543428      -110.462397941      -110.002132665        10.458095074
       473          473.000000         0.005434658       286.021180539      -110.462347100      -110.002133061        10.474676132
       474          474.000000         0.005229992       275.249838547      -110.462309494      -110.002132754        10.335687876
       475          475.000000         0.004078578       214.651936384      -110.462295309      -110.002132367        10.389318943
       476          476.000000         0.003995747       210.292625662      -110.462310614      -110.002132029        10.384490967
       477          477.000000         0.004076625       214.549133460      -110.462358942      -110.002131900         9.649968147
       478          478.000000         0.004317582       227.230512041      -110.462444272      -110.002132117         9.764664888
       479          479.000000         0.003900786       205.294870187      -110.462557852      -110.002132642        16.135174990
       480          480.000000         0.004089596       215.231773054      -110.462707362      -110.002133505        13.320624113
       481          481.000000         0.003761421       197.960205965      -110.462866824      -110.002134189         9.783489943
       482          482.000000         0.004348569       228.861286986      -110.463051686      -110.002134794         9.965507030
       483          483.000000         0.004532658       238.549732032      -110.463256245      -110.002135295        10.137758017
       484          484.000000         0.005263664       277.021958783      -110.463469442      -110.002135790        10.060051918
       485          485.000000         0.005760966       303.194489654      -110.463690374      -110.002136448        10.033722162
       486          486.000000         0.006286614       330.858867085      -110.463888089      -110.002137110        10.543601990
       487          487.000000         0.004517327       237.742909656      -110.464043762      -110.002137446         9.754508972
       488          488.000000         0.004977195       261.945327959      -110.464170711      -110.002137432         9.316042900
       489          489.000000         0.004899851       257.874785138      -110.464291132      -110.002137095         9.306087017
       490          490.000000         0.003871383       203.747416813      -110.464383572      -110.002136916         9.291105986
       491          491.000000         0.004309756       226.818628156      -110.464477465      -110.002137017         9.278205156
       492          492.000000         0.004629620       243.652756844      -110.464575329      -110.002137648         9.387782812
       493          493.000000         0.003127948       164.621120752      -110.464653782      -110.002138465         9.316895962
       494          494.000000         0.003202684       168.554426756      -110.464716815      -110.002139047         9.321799040
       495          495.000000         0.002304622       121.290215535      -110.464783506      -110.002139709         9.363059044
       496          496.000000         0.002297690       120.925384409      -110.464850756      -110.002140293        10.070792913
       497          497.000000         0.003009092       158.365806589      -110.464931801      -110.002141175        10.026499033
       498          498.000000         0.003477655       183.025888518      -110.465001581      -110.002141993        10.054253101
       499          499.000000         0.003906120       205.575602474      -110.465047440      -110.002141562        10.151568890
       500          500.000000         0.005383218       283.313949388      -110.465041994      -110.002139110        10.032829046
       501          501.000000         0.004278209       225.158316228      -110.464984534      -110.002136738        10.850928068
       502          502.000000         0.003752916       197.512618196      -110.464910345      -110.002135342        10.853333950
       503          503.000000         0.004049793       213.136973049      -110.464844065      -110.002135266        10.092577934
       504          504.000000         0.004604662       242.339238193      -110.464770366      -110.002136645        10.929097176
       505          505.000000         0.004260190       224.210022216      -110.464680412      -110.002138596        10.813712835
       506          506.000000         0.004436377       233.482586761      -110.464537560      -110.002140305        10.815600157
       507          507.000000         0.004522818       238.031879704      -110.464315580      -110.002140225        10.879035950
       508          508.000000         0.004212353       221.692358802      -110.464028691      -110.002138702        12.700218916
       509          509.000000         0.003989717       209.975258521      -110.463694396      -110.002136852        10.974437952
       510          510.000000         0.004598481       242.013953598      -110.463264494      -110.002134528        10.906857014
       511          511.000000         0.005134026       270.199185289      -110.462809613      -110.002132615        10.826014042
       512          512.000000         0.005198911       273.614030425      -110.462272591      -110.002130762        10.833945990
       513          513.000000         0.004947824       260.399570377      -110.461776281      -110.002129564        10.819808006
       514          514.000000         0.004327603       227.757895042      -110.461233893      -110.002128381        10.044686079
       515          515.000000         0.002768720       145.715259953      -110.460802062      -110.002127320        10.274437904
       516          516.000000         0.001859820        97.880653845      -110.460483284      -110.002126393        10.039980173
       517          517.000000         0.001994186       104.952231381      -110.460287552      -110.002125723        10.000650883
       518          518.000000         0.003183088       167.523085184      -110.460164322      -110.002125217        10.093813896
       519          519.000000         0.002944031       154.941705125      -110.460130878      -110.002124988        10.042510033
       520          520.000000         0.003661893       192.722180015      -110.460198680      -110.002125135        10.049431086
       521          521.000000         0.003420419       180.013622290      -110.460374517      -110.002125759        10.092504978
       522          522.000000         0.002792530       146.968351854      -110.460611053      -110.002126631        10.065097094
       523          523.000000         0.002583529       135.968852281      -110.460904701      -110.002127698        10.033602953
       524          524.000000         0.003488978       183.621783977      -110.461311157      -110.002129152        10.082213879
       525          525.000000         0.003681319       193.744547891      -110.461774490      -110.002130632        10.076650143
       526          526.000000         0.004853581       255.439637172      -110.462215716      -110.002131818        10.071357012
       527          527.000000         0.005745321       302.371140370      -110.462723588      -110.002133308        10.191059828