#     Step Nr.          Time[fs]        Kin.[a.u.]          Temp[K]            Pot.[a.u.]        Cons Qty[a.u.]        UsedTime[s]
         0            0.000000         0.007125335       300.000000000      -180.715692326      -180.708566992         0.000000000
         1            1.000000         0.010544532       443.959462322      -180.722430805      -180.711321661        41.895466089
         2            2.000000         0.019473708       819.907109515      -180.728674657      -180.710968837        16.722450018
         3            3.000000         0.027392862      1153.329504594      -180.736766816      -180.710490729        17.923259974
         4            4.000000         0.036149541      1522.014475570      -180.745835568      -180.709786801        18.008347988
         5            5.000000         0.046386801      1953.036786938      -180.755270158      -180.708977242        17.888149977
         6            6.000000         0.052371355      2205.006166414      -180.764231142      -180.708109236        17.854983091
         7            7.000000         0.058631875      2468.594616531      -180.772517377      -180.707237820        17.855581999
         8            8.000000         0.065653642      2764.234101791      -180.779148103      -180.706086356        17.821515799
         9            9.000000         0.071093929      2993.288048546      -180.783780627      -180.705000145        17.831711054
        10           10.000000         0.076206938      3208.562537171      -180.786279364      -180.704084330        17.831058025
        11           11.000000         0.072875554      3068.300307120      -180.785987357      -180.703090025        17.887030125
        12           12.000000         0.067095463      2824.939505352      -180.782958948      -180.702419553        17.829504967
        13           13.000000         0.057707555      2429.677724964      -180.777296088      -180.701830407        17.850508928
        14           14.000000         0.051735792      2178.246852509      -180.770056873      -180.701247767        17.791332006
        15           15.000000         0.043938835      1849.969352506      -180.761881421      -180.700632122        17.934612036
        16           16.000000         0.032881724      1384.428644719      -180.755103508      -180.700497469        17.861016035
        17           17.000000         0.028827533      1213.733862009      -180.750205709      -180.700254178        17.900557995
        18           18.000000         0.026230031      1104.370510922      -180.749101505      -180.700404261        16.711380959
        19           19.000000         0.027013215      1137.345112338      -180.752360702      -180.700635483        16.652922869
        20           20.000000         0.032257037      1358.127253162      -180.760494453      -180.701335115        16.733656168
        21           21.000000         0.044622485      1878.753279658      -180.772455114      -180.701964985        17.096647024
        22           22.000000         0.057648983      2427.211626237      -180.785775919      -180.701037179        16.717341900
        23           23.000000         0.069503108      2926.309252870      -180.801677506      -180.702153763        17.882360935
        24           24.000000         0.075227448      3167.322779405      -180.814448646      -180.701216155        16.750879049
        25           25.000000         0.084350268      3551.423474108      -180.827711469      -180.702771079        17.901505947
        26           26.000000         0.089376373      3763.039025298      -180.837986191      -180.704239262        17.945404053
        27           27.000000         0.089302010      3759.908108778      -180.844679788      -180.705621455        17.869488955
        28           28.000000         0.084402921      3553.640371822      -180.848612782      -180.707480468        17.827146053
        29           29.000000         0.082881620      3489.588570930      -180.848643430      -180.708362650        17.848616123
        30           30.000000         0.073633518      3100.213115593      -180.846348488      -180.709254257        17.876233816
        31           31.000000         0.067533007      2843.361513591      -180.842787527      -180.710366232        17.853479147
        32           32.000000         0.060179603      2533.759066261      -180.837601945      -180.710624594        17.807665825
        33           33.000000         0.051087735      2150.961531327      -180.832040055      -180.711053824        17.869594097
        34           34.000000         0.044568505      1876.480544514      -180.826422500      -180.711284728        17.843214035
        35           35.000000         0.038360761      1615.114118456      -180.821522534      -180.711546379        17.890192986
        36           36.000000         0.032240907      1357.448145339      -180.818034257      -180.712237021        17.962524891
        37           37.000000         0.026298532      1107.254629405      -180.815348704      -180.712366938        17.866072178
        38           38.000000         0.025111271      1057.267022516      -180.813765672      -180.712305641        16.693241835
        39           39.000000         0.023450236       987.331995409      -180.813397451      -180.712160101        17.867060184
        40           40.000000         0.024584455      1035.086345508      -180.814161452      -180.711979604        17.890157938
        41           41.000000         0.025146637      1058.756048395      -180.815070716      -180.710967435        17.912384987
        42           42.000000         0.028352269      1193.723693790      -180.817433451      -180.710619434        17.876735926
        43           43.000000         0.032096870      1351.383718853      -180.820257090      -180.710216935        17.904162169
        44           44.000000         0.035145927      1479.759042247      -180.823151574      -180.709693842        17.878601789
        45           45.000000         0.038191909      1608.004903096      -180.826074816      -180.709336113        17.990231991
        46           46.000000         0.038705649      1629.635004181      -180.828539951      -180.708910561        16.728707075
        47           47.000000         0.040288755      1696.288978984      -180.830295287      -180.708331647        16.737370014
        48           48.000000         0.038513847      1621.559515175      -180.831762613      -180.707804063        17.893731117
        49           49.000000         0.037521918      1579.796068111      -180.834162606      -180.708463209        17.922930002
        50           50.000000         0.038109537      1604.536768986      -180.834803031      -180.707646084        16.776017904
        51           51.000000         0.040179094      1691.671896383      -180.835218681      -180.706985588        17.988739967
        52           52.000000         0.041647449      1753.494470029      -180.835514037      -180.706509141        17.871104002
        53           53.000000         0.040919177      1722.831831010      -180.835718247      -180.706197202        17.880839109
        54           54.000000         0.038146737      1606.103002520      -180.835509150      -180.705763025        17.900419950
        55           55.000000         0.036722793      1546.150261788      -180.841778485      -180.712116387        17.979470015
        56           56.000000         0.035882629      1510.776617408      -180.841157978      -180.711871509        16.961098909
        57           57.000000         0.034995589      1473.429286718      -180.840171272      -180.711591224        16.991703987
        58           58.000000         0.030732069      1293.921091935      -180.838998956      -180.711347847        17.041382074
        59           59.000000         0.025985371      1094.069534212      -180.837706389      -180.711042419        16.840583086
        60           60.000000         0.023458561       987.682530473      -180.836545692      -180.710802170        16.811125994
        61           61.000000         0.020795950       875.577837701      -180.835371699      -180.710523573        17.984680891
        62           62.000000         0.019648895       827.283070535      -180.840340458      -180.716325844        17.964694023
        63           63.000000         0.017817275       750.165825902      -180.839608089      -180.716304190        17.907245874
        64           64.000000         0.019768707       832.327539976      -180.839041161      -180.716264599        17.943620205
        65           65.000000         0.018439292       776.354792924      -180.838055586      -180.715626017        17.874107838
        66           66.000000         0.016621732       699.829551826      -180.838163572      -180.715912729        16.772387981
        67           67.000000         0.016883087       710.833427350      -180.838339560      -180.716036264        16.700884104
        68           68.000000         0.013580605       571.788096071      -180.838869024      -180.716159219        16.757076979
        69           69.000000         0.016279204       685.407983862      -180.839820479      -180.716270684        16.790036917
        70           70.000000         0.017133553       721.378906307      -180.836649740      -180.711750628        17.913642168
        71           71.000000         0.017296988       728.260040376      -180.838703688      -180.712213690        16.742115021
        72           72.000000         0.018110525       762.512618955      -180.840839370      -180.712631023        16.742204905
        73           73.000000         0.020050928       844.209975579      -180.842862672      -180.712946915        16.783962965
        74           74.000000         0.021401540       901.075159671      -180.845114854      -180.713404654        16.677518129
        75           75.000000         0.021529973       906.482627258      -180.847109374      -180.713711291        16.717187881
        76           76.000000         0.020421250       859.801717702      -180.848918799      -180.714154125        16.751840115
        77           77.000000         0.019246245       810.330161099      -180.850084871      -180.714368866        16.788348913
        78           78.000000         0.019849428       835.726148673      -180.850939866      -180.714586721        16.717456102
        79           79.000000         0.019749902       831.535790695      -180.846563816      -180.709835068        16.674107790
        80           80.000000         0.019352157       814.789403852      -180.847040984      -180.710222108        16.674595118
        81           81.000000         0.019338252       814.203977794      -180.845815191      -180.709103472        16.733068943
        82           82.000000         0.018927393       796.905439025      -180.846093042      -180.709467947        16.706925154
        83           83.000000         0.017624148       742.034538719      -180.846315158      -180.709646122        16.694504976
        84           84.000000         0.019776448       832.653448189      -180.847364193      -180.710519543        16.695039988
        85           85.000000         0.019650147       827.335762067      -180.848514531      -180.711306318        16.784673929
        86           86.000000         0.019326617       813.714091440      -180.849452756      -180.711518846        16.726486921
        87           87.000000         0.019946436       839.810498091      -180.850967355      -180.711887590        16.688512087
        88           88.000000         0.021522350       906.161668598      -180.852479422      -180.711998103        16.741146088
        89           89.000000         0.021502727       905.335487537      -180.854002117      -180.712140001        16.686935902
        90           90.000000         0.020950000       882.063870663      -180.855395214      -180.712336143        16.789489985
        91           91.000000         0.020325198       855.757626445      -180.856485809      -180.712429847        16.963675022
        92           92.000000         0.018923225       796.729970979      -180.857439099      -180.712493515        16.755387068
        93           93.000000         0.016454708       692.797281130      -180.858626937      -180.712898247        16.708606958
        94           94.000000         0.016027377       674.805240334      -180.859504493      -180.713013582        16.694455862
        95           95.000000         0.014693214       618.632601032      -180.859075573      -180.711836439        16.671256065
        96           96.000000         0.016138542       679.485650651      -180.859862000      -180.711893239        16.664858103
        97           97.000000         0.017022494       716.702927315      -180.860262814      -180.711535610        16.647069931
        98           98.000000         0.017277301       727.431160420      -180.861051468      -180.711421178        16.720103025
        99           99.000000         0.017896435       753.498742518      -180.861754544      -180.711099315        16.656130075
       100          100.000000         0.017966613       756.453473399      -180.862598327      -180.710802576        16.790375948
       101          101.000000         0.016658570       701.380563720      -180.864232566      -180.711254053        16.644893885
       102          102.000000         0.021005908       884.417780520      -180.865394998      -180.711204709        16.678106070
       103          103.000000         0.019934376       839.302740550      -180.867681167      -180.712296986        16.655095100
       104          104.000000         0.022240071       936.380058568      -180.868836572      -180.712348486        16.740978956
       105          105.000000         0.024092158      1014.359028489      -180.869946468      -180.712247398        16.670178890
       106          106.000000         0.026516443      1116.429392391      -180.871236699      -180.712272317        16.691540956
       107          107.000000         0.029902161      1258.979267517      -180.872600348      -180.712304433        16.647828102
       108          108.000000         0.028557794      1202.376962559      -180.873744435      -180.712213865        16.645452023
       109          109.000000         0.031097380      1309.301878708      -180.874548668      -180.711966912        16.780689001
       110          110.000000         0.032669441      1375.490851408      -180.875421777      -180.711967424        16.610944986
       111          111.000000         0.032286103      1359.351051884      -180.876065729      -180.711984809        16.694230080
       112          112.000000         0.032162015      1354.126534532      -180.876508293      -180.712029968        16.649572849
       113          113.000000         0.031672616      1333.521204103      -180.876902247      -180.712321214        16.635710001
       114          114.000000         0.029272080      1232.450765390      -180.875169357      -180.710703332        16.617726088
       115          115.000000         0.027636063      1163.569064947      -180.876675937      -180.712615041        16.677893877
       116          116.000000         0.023603759       993.795810338      -180.876387610      -180.713057284        16.646645069
       117          117.000000         0.021099898       888.375038909      -180.875965287      -180.713390681        16.730087042
       118          118.000000         0.020010074       842.489859231      -180.875597957      -180.713703113        16.633780003
       119          119.000000         0.018092136       761.738387695      -180.875509057      -180.714060744        15.480733871
       120          120.000000         0.016974685       714.690004206      -180.875577122      -180.714277447        15.513442039
       121          121.000000         0.016130062       679.128599440      -180.876123743      -180.714701133        16.731739998
       122          122.000000         0.019269986       811.329744256      -180.870401141      -180.708660377        16.625123978
       123          123.000000         0.020500067       863.120191237      -180.871121045      -180.709007062        16.663107157
       124          124.000000         0.020620282       868.181630941      -180.871711495      -180.709272215        16.656762838
       125          125.000000         0.020387405       858.376741449      -180.872052014      -180.709405338        16.718221188
       126          126.000000         0.020407665       859.229763288      -180.872355210      -180.709613837        16.772538900
       127          127.000000         0.020058655       844.535286731      -180.872651878      -180.709979173        16.852313995
       128          128.000000         0.021121674       889.291875653      -180.872561817      -180.710278242        16.672574997
       129          129.000000         0.018548414       780.949191297      -180.871791075      -180.710248785        16.668967962
       130          130.000000         0.016495771       694.526153736      -180.872198660      -180.711649624        16.627938032
       131          131.000000         0.015310926       644.640301055      -180.871177896      -180.711696692        15.520308971
       132          132.000000         0.013369080       562.882202418      -180.873436345      -180.715008411        16.618642092
       133          133.000000         0.012805448       539.151450001      -180.872358083      -180.715075279        16.631049871
       134          134.000000         0.009462518       398.403096253      -180.871213237      -180.715038460        16.618826151
       135          135.000000         0.007746153       326.138507645      -180.870190715      -180.715011562        16.597862959
       136          136.000000         0.007458484       314.026681847      -180.869332791      -180.715032754        16.630594015
       137          137.000000         0.006940951       292.236848159      -180.868667200      -180.715050651        16.662137032
       138          138.000000         0.005314970       223.777722983      -180.868240242      -180.715073241        16.655854940
       139          139.000000         0.004438700       186.883872818      -180.868292645      -180.715305494        16.582342863
       140          140.000000         0.004614034       194.266014073      -180.868384633      -180.715303630        16.644130230
       141          141.000000         0.004955201       208.630231407      -180.868757417      -180.715298423        16.641875982
       142          142.000000         0.005977321       251.664861586      -180.869385131      -180.715294607        16.730140924
       143          143.000000         0.005712003       240.494116039      -180.870432113      -180.715464547        16.650460005
       144          144.000000         0.006294355       265.013031533      -180.871458456      -180.715444529        16.598824024
       145          145.000000         0.007957048       335.017880119      -180.869972141      -180.712664346        16.725645065
       146          146.000000         0.007803457       328.551183382      -180.871385601      -180.712730870        16.600554943
       147          147.000000         0.009513954       400.568747945      -180.872715066      -180.712567856        16.618094921
       148          148.000000         0.011884943       500.395173523      -180.874255231      -180.712598037        16.672018051
       149          149.000000         0.014539017       612.140377495      -180.875690205      -180.712674247        16.631639957
       150          150.000000         0.016580543       698.095366004      -180.876865584      -180.712493694        16.669450998
       151          151.000000         0.018090399       761.665241920      -180.877981394      -180.712430219        16.619018078
       152          152.000000         0.016765405       705.878648682      -180.879036140      -180.712482921        16.711638927
       153          153.000000         0.018495722       778.730683830      -180.879310918      -180.712009063        16.637032032
       154          154.000000         0.018998758       799.910163437      -180.879571648      -180.711756574        16.639525890
       155          155.000000         0.019707260       829.740427553      -180.879479275      -180.711404577        16.686145067
       156          156.000000         0.021675612       912.614510584      -180.879427633      -180.711301183        16.695919991
       157          157.000000         0.020069568       844.994784595      -180.879192176      -180.711187976        16.703088045
       158          158.000000         0.020279912       853.850946681      -180.878600599      -180.710831296        16.720841885
       159          159.000000         0.019475198       819.969824958      -180.878049975      -180.710581662        16.687846184
       160          160.000000         0.017805249       749.659479086      -180.882076247      -180.714886729        16.652027845
       161          161.000000         0.015762890       663.669479852      -180.881888433      -180.714909828        16.737923145
       162          162.000000         0.014414393       606.893335910      -180.881894620      -180.715058089        16.776856899
       163          163.000000         0.012175039       512.609142702      -180.881835508      -180.715040345        16.830856085
       164          164.000000         0.010696880       450.373784249      -180.882419575      -180.715547663        16.907706976
       165          165.000000         0.010906239       459.188504701      -180.881746943      -180.714649777        16.778188944
       166          166.000000         0.012547314       528.283151771      -180.883908516      -180.716409208        16.753973961
       167          167.000000         0.013019771       548.175160647      -180.884306964      -180.716275524        16.749154091
       168          168.000000         0.013760879       579.378208581      -180.884810005      -180.716183421        16.753036976
       169          169.000000         0.012470261       525.038954578      -180.885193203      -180.715973207        16.750488043
       170          170.000000         0.014664813       617.436828084      -180.879547094      -180.709793101        16.768632889
       171          171.000000         0.014555144       612.819393388      -180.879937664      -180.709790519        16.764135122
       172          172.000000         0.015707534       661.338785142      -180.880217925      -180.709871209        16.705522060
       173          173.000000         0.015396927       648.261231418      -180.880147011      -180.709825909        16.722357988
       174          174.000000         0.014622279       615.646015255      -180.879851534      -180.709777320        17.927610874
       175          175.000000         0.013009141       547.727577403      -180.879348275      -180.709745699        17.859690905
       176          176.000000         0.011825216       497.880437728      -180.878607618      -180.709722932        16.700619221
       177          177.000000         0.010435332       439.361756387      -180.877942642      -180.709960173        16.749478817
       178          178.000000         0.008905310       374.942829126      -180.876848020      -180.709869870        16.785060167
       179          179.000000         0.007788252       327.911012480      -180.875529396      -180.709670440        16.744167805
       180          180.000000         0.006295830       265.075114140      -180.874429080      -180.709567905        16.770089149
       181          181.000000         0.005269659       221.869950211      -180.873443384      -180.709498039        16.811151981
       182          182.000000         0.004379087       184.373969980      -180.872666165      -180.709430571        16.655345917
       183          183.000000         0.004569930       192.409052507      -180.871556885      -180.708817272        16.715310097
       184          184.000000         0.004463457       187.926191929      -180.871314813      -180.708829401        16.734957933
       185          185.000000         0.006188480       260.555325554      -180.871233797      -180.708769793        16.708755016
       186          186.000000         0.005581306       234.991317033      -180.871418683      -180.708749778        15.519697905
       187          187.000000         0.006679907       281.246049788      -180.871812296      -180.708744809        15.487385035
       188          188.000000         0.006076948       255.859482901      -180.872318437      -180.708708311        15.541666031
       189          189.000000         0.006559338       276.169695621      -180.872874528      -180.708667532        15.513231039
       190          190.000000         0.008560337       360.418327424      -180.873370547      -180.708517988        15.511826992
       191          191.000000         0.008696622       366.156375031      -180.873647278      -180.708224781        16.748757124
       192          192.000000         0.008707703       366.622910496      -180.873977748      -180.708187064        15.458006859
       193          193.000000         0.008665256       364.835746095      -180.874075709      -180.708107454        16.703247070
       194          194.000000         0.009199408       387.325327402      -180.873559559      -180.707593476        15.521806955
       195          195.000000         0.009714262       409.002350567      -180.873344735      -180.707507954        16.695456982
       196          196.000000         0.009195264       387.150832593      -180.873195111      -180.707543118        16.718606949
       197          197.000000         0.009916367       417.511655064      -180.872770016      -180.707363978        16.770064116
       198          198.000000         0.009715798       409.067023749      -180.877938675      -180.712848156        16.717962980
       199          199.000000         0.009667421       407.030189216      -180.877747564      -180.713012396        16.803447008
       200          200.000000         0.008852251       372.708857723      -180.877547430      -180.713187395        16.780313015
       201          201.000000         0.007933706       334.035077697      -180.877349966      -180.713269156        16.715471029
       202          202.000000         0.008671399       365.094403340      -180.877227953      -180.713347435        16.840590000
       203          203.000000         0.007535981       317.289548602      -180.877855969      -180.714063329        16.715873957
       204          204.000000         0.007412646       312.096751021      -180.877958042      -180.714109866        16.814699888
       205          205.000000         0.007162226       301.553257546      -180.878246851      -180.714184264        16.708245039
       206          206.000000         0.006716090       282.769456781      -180.878672375      -180.714251355        16.710782051
       207          207.000000         0.005479728       230.714570911      -180.879666852      -180.714772773        16.785599947
       208          208.000000         0.006427432       270.615994918      -180.880222286      -180.714719187        16.729970932
       209          209.000000         0.006521360       274.570676942      -180.881054099      -180.714776801        16.793476105
       210          210.000000         0.007096244       298.775183403      -180.882059835      -180.714917000        16.768456936
       211          211.000000         0.007359633       309.864716601      -180.883115087      -180.714992466        16.721902132
       212          212.000000         0.007822948       329.371816180      -180.884175736      -180.715023073        16.692257881
       213          213.000000         0.008861087       373.080880576      -180.885294621      -180.715072044        16.773422003
       214          214.000000         0.010084469       424.589288835      -180.886291486      -180.714997858        16.761363983
       215          215.000000         0.008884349       374.060282155      -180.880864809      -180.708673413        16.693257093
       216          216.000000         0.010277342       432.709891065      -180.881953633      -180.709017893        16.660340071
       217          217.000000         0.009011551       379.415899444      -180.882560543      -180.709028978        16.871578932
       218          218.000000         0.010546682       444.049988147      -180.883138131      -180.709164030        16.792057037
       219          219.000000         0.012606462       530.773483693      -180.883698862      -180.709373278        16.712910891
       220          220.000000         0.012733446       536.119941334      -180.883988684      -180.709503592        16.681977987
       221          221.000000         0.014483553       609.805187325      -180.884057071      -180.709645960        16.674563169
       222          222.000000         0.013193199       555.477023314      -180.884097205      -180.709983530        16.696211815
       223          223.000000         0.014429975       607.549359645      -180.883779699      -180.710076752        16.715286016
       224          224.000000         0.013980663       588.631863314      -180.883457889      -180.710174189        16.774049997
       225          225.000000         0.013723283       577.795312940      -180.883314890      -180.710351721        16.713545084
       226          226.000000         0.015303442       644.325209697      -180.883608576      -180.710815340        16.695677996
       227          227.000000         0.013916592       585.934258074      -180.883764550      -180.710973612        16.692857027