       6
 i =        0, time =        0.000, E =      -180.7156923261
 Ti        -0.0010613172       -0.0011533158       -0.0050357399
 Ti         0.0010536994       -0.0001414743        0.0010265502
  O        -0.0704499927        0.0706422942       -0.0021319240
  O         0.0704018537       -0.0695039914       -0.0021332364
  O         0.0712025364        0.0709274464        0.0012646530
  O        -0.0711324556       -0.0699827236        0.0012739741
       6
 i =        1, time =        1.000, E =      -180.7224308048
 Ti        -0.0044202203        0.0016237470       -0.0108577855
 Ti        -0.0012711506        0.0012026226       -0.0040992195
  O        -0.0686211618        0.0680161852        0.0043167432
  O         0.0722769546       -0.0710965099        0.0020351753
  O         0.0724951399        0.0699319166        0.0048879553
  O        -0.0695947112       -0.0695794434        0.0035271458
       6
 i =        2, time =        2.000, E =      -180.7286746574
 Ti        -0.0079570231        0.0043415139       -0.0174807323
 Ti        -0.0035149192        0.0024525622       -0.0088993540
  O        -0.0639631185        0.0632321721        0.0076468882
  O         0.0713625958       -0.0702399431        0.0028168591
  O         0.0724429720        0.0681401923        0.0086841382
  O        -0.0671398702       -0.0682644254        0.0061616763
       6
 i =        3, time =        3.000, E =      -180.7367668165
 Ti        -0.0115001489        0.0069400649       -0.0241985328
 Ti        -0.0054934350        0.0034780406       -0.0137577115
  O        -0.0566986683        0.0576359885        0.0111015354
  O         0.0675208037       -0.0672545856        0.0035195221
  O         0.0697211343        0.0655048252        0.0124076681
  O        -0.0635752611       -0.0658289127        0.0093089061
       6
 i =        4, time =        4.000, E =      -180.7458355683
 Ti        -0.0150463625        0.0094530483       -0.0308742637
 Ti        -0.0071386380        0.0042331024       -0.0186268575
  O        -0.0467699390        0.0508867905        0.0146405478
  O         0.0604260021       -0.0609465393        0.0043363188
  O         0.0638124979        0.0614652917        0.0159767840
  O        -0.0582327944       -0.0617179704        0.0130169900
       6
 i =        5, time =        5.000, E =      -180.7552701576
 Ti        -0.0186780918        0.0119471402       -0.0376508758
 Ti        -0.0083504687        0.0046271118       -0.0235559142
  O        -0.0362138174        0.0422156597        0.0182496416
  O         0.0534670114       -0.0527176593        0.0057912840
  O         0.0571692190        0.0552948888        0.0195080682
  O        -0.0504519444       -0.0551404315        0.0170676270
       6
 i =        6, time =        6.000, E =      -180.7642311417
 Ti        -0.0222614970        0.0144431521       -0.0438326971
 Ti        -0.0090670460        0.0046060626       -0.0283867544
  O        -0.0275982685        0.0317395110        0.0220019824
  O         0.0483964395       -0.0455074924        0.0071843219
  O         0.0526988778        0.0466995237        0.0229395263
  O        -0.0405800341       -0.0464235956        0.0209303985
       6
 i =        7, time =        7.000, E =      -180.7725173768
 Ti        -0.0260728715        0.0170076788       -0.0496196345
 Ti        -0.0093097385        0.0040820553       -0.0331531118
  O        -0.0189098268        0.0197879021        0.0261421565
  O         0.0412795200       -0.0390215400        0.0085241858
  O         0.0474396118        0.0361699540        0.0261713945
  O        -0.0298709305       -0.0368915177        0.0236075123
       6
 i =        8, time =        8.000, E =      -180.7791481029
 Ti        -0.0301947212        0.0197760857       -0.0546040257
 Ti        -0.0091504727        0.0029053040       -0.0377437161
  O        -0.0066908373        0.0075271928        0.0305938287
  O         0.0287508941       -0.0292955128        0.0097571694
  O         0.0369419237        0.0253082567        0.0293853951
  O        -0.0198602546       -0.0282367185        0.0244631408
       6
 i =        9, time =        9.000, E =      -180.7837806267
 Ti        -0.0345829817        0.0228007919       -0.0583341578
 Ti        -0.0082315197        0.0010294589       -0.0417717477
  O         0.0085431379       -0.0041594820        0.0352371375
  O         0.0155315068       -0.0146376782        0.0110395013
  O         0.0248707708        0.0150627140        0.0325967085
  O        -0.0098252325       -0.0196863152        0.0234529069
       6
 i =       10, time =       10.000, E =      -180.7862793641
 Ti        -0.0392215141        0.0261755392       -0.0600648074
 Ti        -0.0064005671       -0.0017565683       -0.0449127402
  O         0.0230504385       -0.0157548385        0.0400173399
  O         0.0047256078        0.0007132281        0.0114351610
  O         0.0158981767        0.0036655872        0.0353118846
  O         0.0029288546       -0.0083369150        0.0208892896
       6
 i =       11, time =       11.000, E =      -180.7859873570
 Ti        -0.0445412129        0.0294597097       -0.0587003369
 Ti        -0.0035332968       -0.0057365265       -0.0453186544
  O         0.0355910816       -0.0284005217        0.0446601751
  O        -0.0102341264        0.0145822223        0.0106135688
  O         0.0040931995       -0.0116908966        0.0370741185
  O         0.0203453172        0.0079262575        0.0177396266
       6
 i =       12, time =       12.000, E =      -180.7829589477
 Ti        -0.0491980181        0.0329647071       -0.0537801911
 Ti         0.0002683044       -0.0109715431       -0.0446190509
  O         0.0476526611       -0.0414594968        0.0484235363
  O        -0.0291278699        0.0305176226        0.0083009771
  O        -0.0122305673       -0.0298483234        0.0368383985
  O         0.0386439092        0.0241204001        0.0154421104
       6
 i =       13, time =       13.000, E =      -180.7772960877
 Ti        -0.0535701857        0.0363021823       -0.0449994376
 Ti         0.0047917070       -0.0171250815       -0.0414716406
  O         0.0608790122       -0.0546695125        0.0510930455
  O        -0.0454424303        0.0511846671        0.0038917519
  O        -0.0255549168       -0.0487699860        0.0330535578
  O         0.0556893231        0.0381996506        0.0120863986
       6
 i =       14, time =       14.000, E =      -180.7700568735
 Ti        -0.0574588263        0.0396229422       -0.0319378244
 Ti         0.0099361005       -0.0242913081       -0.0357498202
  O         0.0735307168       -0.0664543500        0.0520204201
  O        -0.0582926001        0.0699969445       -0.0022979255
  O        -0.0359569602       -0.0657311696        0.0257864639
  O         0.0707796810        0.0507653428        0.0059962431
       6
 i =       15, time =       15.000, E =      -180.7618814208
 Ti        -0.0608975432        0.0429012013       -0.0146173298
 Ti         0.0153548515       -0.0320942218       -0.0271937024
  O         0.0844232750       -0.0770296879        0.0503928941
  O        -0.0722464984        0.0859296582       -0.0102524117
  O        -0.0493101888       -0.0812950183        0.0153860705
  O         0.0848476707        0.0634442036       -0.0035681392
       6
 i =       16, time =       16.000, E =      -180.7551035084
 Ti        -0.0635068588        0.0459374687        0.0045639697
 Ti         0.0204352152       -0.0399060486       -0.0171408135
  O         0.0917310305       -0.0835013383        0.0464544940
  O        -0.0851646287        0.0979218568       -0.0185663868
  O        -0.0622359492       -0.0943634851        0.0047562690
  O         0.0966502504        0.0749216313       -0.0145991301
       6
 i =       17, time =       17.000, E =      -180.7502057086
 Ti        -0.0648624179        0.0492757591        0.0248063791
 Ti         0.0247798312       -0.0472754404       -0.0061643496
  O         0.0956088014       -0.0865166110        0.0417449809
  O        -0.0946647328        0.1070503753       -0.0266570328
  O        -0.0710547134       -0.1052874624       -0.0051551048
  O         0.1060623439        0.0842520883       -0.0247049251
       6
 i =       18, time =       18.000, E =      -180.7491015047
 Ti        -0.0654753114        0.0516773368        0.0439794512
 Ti         0.0278376164       -0.0534327492        0.0043685853
  O         0.0962272056       -0.0860038732        0.0380803656
  O        -0.0991742110        0.1125572060       -0.0333847218
  O        -0.0751869423       -0.1129834351       -0.0140684096
  O         0.1120594634        0.0899388454       -0.0320625066
       6
 i =       19, time =       19.000, E =      -180.7523607019
 Ti        -0.0646514920        0.0534215408        0.0599964531
 Ti         0.0291028337       -0.0576832927        0.0131211084
  O         0.0937269942       -0.0823732544        0.0363944258
  O        -0.0986787951        0.1137600301       -0.0379136480
  O        -0.0758099238       -0.1167234164       -0.0225249793
  O         0.1141208056        0.0912962965       -0.0365305263
       6
 i =       20, time =       20.000, E =      -180.7604944530
 Ti        -0.0623456175        0.0542131185        0.0712999677
 Ti         0.0285393437       -0.0597555342        0.0191263965
  O         0.0882569382       -0.0760559370        0.0348291492
  O        -0.0935896660        0.1106149511       -0.0397117803
  O        -0.0735107300       -0.1158022140       -0.0302209813
  O         0.1117826862        0.0882769830       -0.0384069430
       6
 i =       21, time =       21.000, E =      -180.7724551138
 Ti        -0.0584753790        0.0535207709        0.0772793533
 Ti         0.0256810024       -0.0588353780        0.0221706441
  O         0.0801128478       -0.0695436708        0.0312263088
  O        -0.0841932849        0.1033048532       -0.0386311697
  O        -0.0683732377       -0.1087608629       -0.0362841929
  O         0.1039243775        0.0813490561       -0.0379999412
       6
 i =       22, time =       22.000, E =      -180.7857759192
 Ti        -0.0563718037        0.0481250709        0.0710778600
 Ti         0.0209378541       -0.0545978563        0.0218710865
  O         0.0711272490       -0.0626036026        0.0253672196
  O        -0.0705881466        0.0912222101       -0.0347632660
  O        -0.0605054647       -0.0943875938       -0.0401301109
  O         0.0895483983        0.0717925743       -0.0345707281
       6
 i =       23, time =       23.000, E =      -180.8016775064
 Ti        -0.0495285086        0.0436915453        0.0672501701
 Ti         0.0143779734       -0.0479029049        0.0186044026
  O         0.0633176515       -0.0531995010        0.0208579508
  O        -0.0539393633        0.0738770721       -0.0287750188
  O        -0.0515009274       -0.0781337692       -0.0412725429
  O         0.0732039912        0.0615672888       -0.0306354944
       6
 i =       24, time =       24.000, E =      -180.8144486455
 Ti        -0.0416219539        0.0371866323        0.0599397329
 Ti         0.0031563325       -0.0351215252        0.0067577163
  O         0.0552079748       -0.0411286429        0.0216095279
  O        -0.0362013382        0.0531531334       -0.0206193609
  O        -0.0417888629       -0.0639938045       -0.0396965490
  O         0.0599339350        0.0513921368       -0.0255057477
       6
 i =       25, time =       25.000, E =      -180.8277114692
 Ti        -0.0334839941        0.0294232248        0.0498740602
 Ti        -0.0043380186       -0.0252295724        0.0023007271
  O         0.0441127705       -0.0301866103        0.0224789291
  O        -0.0196263992        0.0344460646       -0.0123137671
  O        -0.0320487643       -0.0466890612       -0.0362038562
  O         0.0450546133        0.0402903540       -0.0195138266
       6
 i =       26, time =       26.000, E =      -180.8379861909
 Ti        -0.0249492270        0.0199831818        0.0383116489
 Ti        -0.0124561071       -0.0135149035       -0.0030557972
  O         0.0318038368       -0.0234344225        0.0204172769
  O        -0.0048535377        0.0186974153       -0.0041188755
  O        -0.0227172600       -0.0248373953       -0.0312909195
  O         0.0256423411        0.0270861318       -0.0132357688
       6
 i =       27, time =       27.000, E =      -180.8446797877
 Ti        -0.0163534904        0.0096087519        0.0266707202
 Ti        -0.0205123877       -0.0009010873       -0.0081250556
  O         0.0235322426       -0.0173274673        0.0160235463
  O         0.0081630825        0.0011191252        0.0033924579
  O        -0.0144371539       -0.0083043637       -0.0258340913
  O         0.0121195296        0.0143611306       -0.0077499582
       6
 i =       28, time =       28.000, E =      -180.8486127824
 Ti        -0.0078848376       -0.0003751071        0.0158998246
 Ti        -0.0280704511        0.0117093473       -0.0124535616
  O         0.0172008853       -0.0081622065        0.0136043586
  O         0.0202446968       -0.0175431830        0.0096767381
  O        -0.0075249040        0.0054552031       -0.0205990538
  O         0.0025934121        0.0049450188       -0.0027095535
       6
 i =       29, time =       29.000, E =      -180.8486434300
 Ti         0.0004817349       -0.0116635502        0.0060650871
 Ti        -0.0352899627        0.0246446734       -0.0158049092
  O         0.0073370519        0.0000767362        0.0147898944
  O         0.0321457387       -0.0321475201        0.0144148151
  O        -0.0013623554        0.0221953225       -0.0156502717
  O        -0.0106264176       -0.0009042864        0.0016310673
       6
 i =       30, time =       30.000, E =      -180.8463484884
 Ti         0.0085442083       -0.0229743063       -0.0021425016
 Ti        -0.0416212909        0.0369260629       -0.0173401510
  O        -0.0028757884        0.0038245419        0.0151868163
  O         0.0426409628       -0.0418296479        0.0175753998
  O         0.0040250478        0.0353798104       -0.0112303816
  O        -0.0205618825       -0.0061283291        0.0049941473
       6
 i =       31, time =       31.000, E =      -180.8427875274
 Ti         0.0166812215       -0.0343248234       -0.0088464893
 Ti        -0.0475728883        0.0488530825       -0.0166819220
  O        -0.0089677287        0.0067436456        0.0120475953
  O         0.0513318024       -0.0503181054        0.0194012926
  O         0.0086997598        0.0425204038       -0.0075271872
  O        -0.0241748172       -0.0127388853        0.0075089113
       6
 i =       32, time =       32.000, E =      -180.8376019446
 Ti         0.0246703521       -0.0453914258       -0.0141279686
 Ti        -0.0527736424        0.0598950126       -0.0156197010
  O        -0.0135773359        0.0127037015        0.0083343076
  O         0.0577193002       -0.0587608481        0.0198530311
  O         0.0125552459        0.0490803519       -0.0046750087
  O        -0.0281889308       -0.0192984416        0.0093393543
       6
 i =       33, time =       33.000, E =      -180.8320400546
 Ti         0.0326337701       -0.0562971198       -0.0182030300
 Ti        -0.0566643554        0.0694487173       -0.0129009853
  O        -0.0216843800        0.0196891891        0.0081301543
  O         0.0619549013       -0.0661804764        0.0188973556
  O         0.0157373077        0.0573401119       -0.0024925468
  O        -0.0345241832       -0.0236907201        0.0101714273
       6
 i =       34, time =       34.000, E =      -180.8264224999
 Ti         0.0403412212       -0.0666492151       -0.0211078985
 Ti        -0.0593223901        0.0775664967       -0.0090654444
  O        -0.0307098027        0.0239702100        0.0102490971
  O         0.0641325996       -0.0713074375        0.0164899588
  O         0.0185334092        0.0641730298       -0.0006290203
  O        -0.0378595227       -0.0253980689        0.0103426681
       6
 i =       35, time =       35.000, E =      -180.8215225343
 Ti         0.0476983504       -0.0762050460       -0.0230641383
 Ti        -0.0606835924        0.0841414000       -0.0040774593
  O        -0.0371795864        0.0260780207        0.0099525094
  O         0.0644864219       -0.0739979101        0.0131240122
  O         0.0205876572        0.0674528768        0.0005504963
  O        -0.0375427823       -0.0260214382        0.0101100861
       6
 i =       36, time =       36.000, E =      -180.8180342568
 Ti         0.0553274657       -0.0856174126       -0.0237284751
 Ti        -0.0617630933        0.0902217642        0.0005725705
  O        -0.0411899511        0.0287403101        0.0083198442
  O         0.0630111985       -0.0746907129        0.0085930870
  O         0.0220678468        0.0687824135        0.0011680329
  O        -0.0365444564       -0.0267521725        0.0095285834
       6
 i =       37, time =       37.000, E =      -180.8153487041
 Ti         0.0612600859       -0.0926598249       -0.0238620787
 Ti        -0.0598946082        0.0927126837        0.0076396217
  O        -0.0447188359        0.0328706933        0.0066905886
  O         0.0595781015       -0.0733836883        0.0030608657
  O         0.0230167105        0.0691445801        0.0012779355
  O        -0.0368226957       -0.0279881440        0.0087216739
       6
 i =       38, time =       38.000, E =      -180.8137656715
 Ti         0.0658043281       -0.0978594358       -0.0234856729
 Ti        -0.0562896781        0.0928011358        0.0156437239
  O        -0.0487709638        0.0371822379        0.0086358822
  O         0.0542876433       -0.0703232905       -0.0034997718
  O         0.0235845495        0.0691240740        0.0009922994
  O        -0.0383611150       -0.0296794177        0.0076827897
       6
 i =       39, time =       39.000, E =      -180.8133974514
 Ti         0.0687612366       -0.1008278322       -0.0222841299
 Ti        -0.0510942526        0.0904476619        0.0243674372
  O        -0.0522952513        0.0401300200        0.0105648260
  O         0.0477506792       -0.0650923079       -0.0109645251
  O         0.0238142250        0.0688051594        0.0003438498
  O        -0.0402108633       -0.0317553794        0.0064458803
       6
 i =       40, time =       40.000, E =      -180.8141614520
 Ti         0.0699191234       -0.1013238684       -0.0201889946
 Ti        -0.0443022178        0.0854599366        0.0337113267
  O        -0.0544997854        0.0411549281        0.0084349512
  O         0.0407849812       -0.0575114502       -0.0193212684
  O         0.0237512867        0.0681638855       -0.0006361818
  O        -0.0409651897       -0.0335258939        0.0053030258
       6
 i =       41, time =       41.000, E =      -180.8150707161
 Ti         0.0694555787       -0.1005777600       -0.0171031115
 Ti        -0.0359467867        0.0779859910        0.0437776161
  O        -0.0547225097        0.0399883751        0.0039629147
  O         0.0338519525       -0.0476228621       -0.0284166689
  O         0.0233763542        0.0674597799       -0.0019467000
  O        -0.0408848907       -0.0342227847        0.0042654974
       6
 i =       42, time =       42.000, E =      -180.8174334507
 Ti         0.0670219986       -0.0959881590       -0.0129223889
 Ti        -0.0261080039        0.0672200037        0.0543050384
  O        -0.0529757625        0.0368966862        0.0020016299
  O         0.0260930141       -0.0356646994       -0.0380673607
  O         0.0227328982        0.0661782463       -0.0036132690
  O        -0.0400814295       -0.0346832851        0.0032410071
       6
 i =       43, time =       43.000, E =      -180.8202570901
 Ti         0.0631057695       -0.0891495000       -0.0077632207
 Ti        -0.0152311291        0.0538474121        0.0644914522
  O        -0.0496619253        0.0328764506        0.0022941602
  O         0.0160129559       -0.0231347175       -0.0476820348
  O         0.0218025279        0.0643894997       -0.0055885146
  O        -0.0389280447       -0.0345373794        0.0023064608
       6
 i =       44, time =       44.000, E =      -180.8231515736
 Ti         0.0581184934       -0.0804739177       -0.0018160910
 Ti        -0.0038003575        0.0383762488        0.0736925568
  O        -0.0451801399        0.0281761783        0.0006068286
  O         0.0030754341       -0.0105839924       -0.0567215587
  O         0.0205897617        0.0614788673       -0.0078395104
  O        -0.0375513094       -0.0337860623        0.0015110454
       6
 i =       45, time =       45.000, E =      -180.8260748162
 Ti         0.0523530938       -0.0701909937        0.0049365379
 Ti         0.0079856073        0.0211061566        0.0811919272
  O        -0.0398140193        0.0230778359       -0.0052806871
  O        -0.0107982237        0.0027880212       -0.0646790579
  O         0.0191196229        0.0564357459       -0.0106503972
  O        -0.0359485155       -0.0324053161        0.0008591575
       6
 i =       46, time =       46.000, E =      -180.8285399514
 Ti         0.0462664262       -0.0586356845        0.0123261840
 Ti         0.0197422795        0.0021675146        0.0860650238
  O        -0.0338121831        0.0179345658       -0.0111430135
  O        -0.0229228319        0.0179932044       -0.0709272884
  O         0.0175227749        0.0492090312       -0.0138619872
  O        -0.0340880785       -0.0303471200        0.0003526427
       6
 i =       47, time =       47.000, E =      -180.8302952872
 Ti         0.0405613678       -0.0468926175        0.0197307249
 Ti         0.0301792199       -0.0164298694        0.0871015697
  O        -0.0279672847        0.0134080421       -0.0132973620
  O        -0.0320792477        0.0337039883       -0.0734225857
  O         0.0160053218        0.0424276782       -0.0174042832
  O        -0.0320544937       -0.0277313807        0.0000071186
       6
 i =       48, time =       48.000, E =      -180.8317626131
 Ti         0.0354242893       -0.0351540425        0.0269806878
 Ti         0.0391204220       -0.0342089871        0.0837200251
  O        -0.0224946872        0.0095801377       -0.0137937145
  O        -0.0395802211        0.0484682327       -0.0706318375
  O         0.0145581199        0.0375979620       -0.0211143997
  O        -0.0298162567       -0.0245785187       -0.0002582114
       6
 i =       49, time =       49.000, E =      -180.8341626062
 Ti         0.0320219408       -0.0247810306        0.0344594059
 Ti         0.0454904897       -0.0495272055        0.0753018820
  O        -0.0177547437        0.0065755679       -0.0140785596
  O        -0.0460461390        0.0606111311       -0.0616775729
  O         0.0132515159        0.0332318094       -0.0248470004
  O        -0.0274167389       -0.0211040966       -0.0004528808
       6
 i =       50, time =       50.000, E =      -180.8348030308
 Ti         0.0283181825       -0.0137351228        0.0406744547
 Ti         0.0507147275       -0.0638512947        0.0634328420
  O        -0.0138628428        0.0043094095       -0.0184967980
  O        -0.0518252795        0.0700044571       -0.0487946760
  O         0.0119496480        0.0259320535       -0.0287425418
  O        -0.0246016710       -0.0173456458       -0.0006720148
       6
 i =       51, time =       51.000, E =      -180.8352186813
 Ti         0.0252879200       -0.0030413729        0.0462256109
 Ti         0.0541116583       -0.0761888810        0.0481934335
  O        -0.0110667558        0.0027833677       -0.0230642083
  O        -0.0560635633        0.0767326013       -0.0359504849
  O         0.0104312261        0.0160244598       -0.0325763693
  O        -0.0213373218       -0.0135299855       -0.0009310316
       6
 i =       52, time =       52.000, E =      -180.8355140372
 Ti         0.0226288240        0.0071131646        0.0510046629
 Ti         0.0556175141       -0.0862970358        0.0308532250
  O        -0.0093987094        0.0019860628       -0.0258672721
  O        -0.0582195846        0.0811980827       -0.0223052439
  O         0.0084102774        0.0075931765       -0.0359830006
  O        -0.0174196821       -0.0098887947       -0.0012670523
       6
 i =       53, time =       53.000, E =      -180.8357182466
 Ti         0.0208456068        0.0168571494        0.0544105958
 Ti         0.0550674170       -0.0934272659        0.0122314809
  O        -0.0083790583        0.0016668212       -0.0262973111
  O        -0.0580823526        0.0833072425       -0.0043838643
  O         0.0056778693        0.0018420842       -0.0380995819
  O        -0.0131607763       -0.0066641683       -0.0016928245
       6
 i =       54, time =       54.000, E =      -180.8355091504
 Ti         0.0192880386        0.0262270021        0.0564609008
 Ti         0.0527508194       -0.0977501910       -0.0063315065
  O        -0.0076533902        0.0017290654       -0.0258450682
  O        -0.0557440562        0.0823492750        0.0166842832
  O         0.0021740076       -0.0055902231       -0.0382800587
  O        -0.0086411463       -0.0038656667       -0.0022689646
       6
 i =       55, time =       55.000, E =      -180.8417784851
 Ti         0.0180370404        0.0348830775        0.0563298406
 Ti         0.0445637428       -0.0918184415       -0.0155169380
  O        -0.0065771950        0.0019708375       -0.0257529040
  O        -0.0513715444        0.0779445878        0.0328972251
  O        -0.0019120523       -0.0166083625       -0.0357667341
  O        -0.0043596085       -0.0015077958       -0.0028611110
       6
 i =       56, time =       56.000, E =      -180.8411579775
 Ti         0.0167540500        0.0429732241        0.0542395805
 Ti         0.0387247231       -0.0896775119       -0.0306510901
  O        -0.0051000381        0.0025098990       -0.0263414187
  O        -0.0453106949        0.0707573591        0.0452050142
  O        -0.0066750635       -0.0263123222       -0.0310048574
  O        -0.0004462932        0.0008634884       -0.0035790032
       6
 i =       57, time =       57.000, E =      -180.8401712724
 Ti         0.0154979875        0.0505866216        0.0499174438
 Ti         0.0316238348       -0.0851430228       -0.0439750268
  O        -0.0028186849        0.0032149195       -0.0275713455
  O        -0.0377404999        0.0614692589        0.0574836794
  O        -0.0109766372       -0.0328957837       -0.0258592153
  O         0.0028634193        0.0034575380       -0.0043563053
       6
 i =       58, time =       58.000, E =      -180.8389989564
 Ti         0.0142390938        0.0570830044        0.0436824722
 Ti         0.0237253196       -0.0784263328       -0.0543181205
  O        -0.0000058474        0.0040088505       -0.0288783868
  O        -0.0298284467        0.0526643757        0.0694573202
  O        -0.0144726110       -0.0385453152       -0.0210808111
  O         0.0053876679        0.0062917763       -0.0051374259
       6
 i =       59, time =       59.000, E =      -180.8377063893
 Ti         0.0129248192        0.0623791173        0.0358621534
 Ti         0.0155221368       -0.0702705486       -0.0615760122
  O         0.0028463649        0.0049203364       -0.0299794629
  O        -0.0221222504        0.0443793750        0.0786327040
  O        -0.0170680208       -0.0448681850       -0.0158985082
  O         0.0073249373        0.0093466386       -0.0058915358
       6
 i =       60, time =       60.000, E =      -180.8365456922
 Ti         0.0114496418        0.0661615927        0.0269024877
 Ti         0.0072167521       -0.0609690465       -0.0659673588
  O         0.0053189863        0.0058938366       -0.0306168469
  O        -0.0148330415        0.0343206143        0.0840734256
  O        -0.0188486720       -0.0512681582       -0.0087722730
  O         0.0088828178        0.0125017371       -0.0066120214
       6
 i =       61, time =       61.000, E =      -180.8353716994
 Ti         0.0098744804        0.0689727059        0.0168931198
 Ti        -0.0012822834       -0.0506319033       -0.0678937002
  O         0.0072395408        0.0069720448       -0.0307816010
  O        -0.0077449901        0.0208305524        0.0862986347
  O        -0.0199573930       -0.0568352643        0.0013419164
  O         0.0102434788        0.0157122706       -0.0073051708
       6
 i =       62, time =       62.000, E =      -180.8403404580
 Ti         0.0043307071        0.0631667559        0.0161061199
 Ti        -0.0092472361       -0.0398924388       -0.0675240202
  O         0.0084020117        0.0082222598       -0.0304705211
  O        -0.0009250296        0.0069460066        0.0859471778
  O        -0.0202752924       -0.0605388384        0.0122695452
  O         0.0115959864        0.0188550952       -0.0080554198
       6
 i =       63, time =       63.000, E =      -180.8396080890
 Ti         0.0020319711        0.0624446864        0.0057483441
 Ti        -0.0168379098       -0.0290719612       -0.0651777672
  O         0.0090687190        0.0093903400       -0.0298934905
  O         0.0059122869       -0.0040283715        0.0834897987
  O        -0.0200081265       -0.0624497734        0.0230002930
  O         0.0126592428        0.0215207503       -0.0086414632
       6
 i =       64, time =       64.000, E =      -180.8390411607
 Ti        -0.0003165527        0.0601583851       -0.0039284883
 Ti        -0.0237875262       -0.0183160250       -0.0612874292
  O         0.0093081511        0.0105119077       -0.0290775195
  O         0.0128289068       -0.0129680402        0.0791978342
  O        -0.0192323080       -0.0626158659        0.0317275738
  O         0.0135712688        0.0238078363       -0.0091475036
       6
 i =       65, time =       65.000, E =      -180.8380555863