       6
 i =        0, time =        0.000, E =      -180.7156923261
 Ti         2.3266360760        2.3266360760        1.4846014980
 Ti         0.0000000000        0.0000000000        0.0000000000
  O         0.9093424080        3.7439296250        1.4846014980
  O         3.7439296250        0.9093424080        1.4846014980
  O         1.4172936680        1.4172936680        0.0000000000
  O         3.2359786030        3.2359786030        0.0000000000
       6
 i =        1, time =        1.000, E =      -180.7224308048
 Ti         2.3271858872        2.3268169177        1.4837460719
 Ti        -0.0021795575        0.0016662396       -0.0013905108
  O         0.9027153261        3.7446998882        1.4798889774
  O         3.7508773479        0.9042169185        1.4880058972
  O         1.4235992293        1.4177121371        0.0013697628
  O         3.2342284970        3.2344014844        0.0065688184
       6
 i =        2, time =        2.000, E =      -180.7286746574
 Ti         2.3277239621        2.3270268308        1.4827191354
 Ti        -0.0045136893        0.0034531193       -0.0029148222
  O         0.8934628215        3.7476973908        1.4750098463
  O         3.7605882664        0.8964838846        1.4916956438
  O         1.4326334362        1.4203964206        0.0029846005
  O         3.2301372422        3.2304948944        0.0136754201
       6
 i =        3, time =        3.000, E =      -180.7367668165
 Ti         2.3281835091        2.3272835909        1.4815021297
 Ti        -0.0069029441        0.0052797185       -0.0045438542
  O         0.8821454012        3.7526873536        1.4703300236
  O         3.7725981148        0.8865025879        1.4955024057
  O         1.4439948323        1.4252234799        0.0048826370
  O         3.2239231763        3.2244319492        0.0210303216
       6
 i =        4, time =        4.000, E =      -180.7458355683
 Ti         2.3285197788        2.3276093018        1.4800479864
 Ti        -0.0093244951        0.0071235657       -0.0062981551
  O         0.8691940534        3.7594046585        1.4660404108
  O         3.7865687212        0.8745480696        1.4993789508
  O         1.4573914814        1.4320223137        0.0071441324
  O         3.2158110051        3.2163998278        0.0285974558
       6
 i =        5, time =        5.000, E =      -180.7552701576
 Ti         2.3286978243        2.3280297063        1.4782879936
 Ti        -0.0117984622        0.0089949151       -0.0082292824
  O         0.8549123801        3.7676341051        1.4622404614
  O         3.8022823292        0.8608167849        1.5033553552
  O         1.4726407250        1.4406591776        0.0098790524
  O         3.2059721311        3.2065326988        0.0365000696
       6
 i =        6, time =        6.000, E =      -180.7642311417
 Ti         2.3286789405        2.3285541848        1.4762178419
 Ti        -0.0142558567        0.0108365773       -0.0103204541
  O         0.8401157961        3.7768087164        1.4591505239
  O         3.8189762531        0.8460467342        1.5073447659
  O         1.4890017638        1.4506217990        0.0130944894
  O         3.1950038487        3.1953949053        0.0445973621
       6
 i =        7, time =        7.000, E =      -180.7725173768
 Ti         2.3284320862        2.3292159909        1.4737408030
 Ti        -0.0167555117        0.0126874548       -0.0126596328
  O         0.8247777967        3.7867679439        1.4567996445
  O         3.8368107079        0.8301850830        1.5114722750
  O         1.5066422508        1.4618118879        0.0169475389
  O         3.1830166760        3.1830623824        0.0531697861
       6
 i =        8, time =        8.000, E =      -180.7791481029
 Ti         2.3279219461        2.3300404134        1.4707992906
 Ti        -0.0193052189        0.0145465191       -0.0152966762
  O         0.8091383289        3.7971536679        1.4552949076
  O         3.8555884950        0.8134135211        1.5157864751
  O         1.5254188915        1.4739094200        0.0215345413
  O         3.1703301444        3.1698210689        0.0623113539
       6
 i =        9, time =        9.000, E =      -180.7837806267
 Ti         2.3271066957        2.3310588860        1.4673298283
 Ti        -0.0219191429        0.0164135950       -0.0182915314
  O         0.7934770418        3.8076489534        1.4547510486
  O         3.8750311467        0.7959366450        1.5203505855
  O         1.5451129195        1.4866444718        0.0269733262
  O         3.1571809879        3.1558654477        0.0720992494
       6
 i =       10, time =       10.000, E =      -180.7862793641
 Ti         2.3259184433        2.3323303159        1.4632005599
 Ti        -0.0246572422        0.0183187268       -0.0217663243
  O         0.7778535598        3.8181678100        1.4552999434
  O         3.8952433221        0.7777469169        1.5253262920
  O         1.5658718799        1.5000362998        0.0335098861
  O         3.1435326026        3.1410907703        0.0827629025
       6
 i =       11, time =       11.000, E =      -180.7859873570
 Ti         2.3242859268        2.3339112087        1.4583283160
 Ti        -0.0275368212        0.0202570582       -0.0258071659
  O         0.7625309737        3.8284766761        1.4571214962
  O         3.9161520369        0.7590864305        1.5307963202
  O         1.5876933670        1.5139064309        0.0413335506
  O         3.1296062267        3.1256534735        0.0943722442
       6
 i =       12, time =       12.000, E =      -180.7829589477
 Ti         2.3222857928        2.3357099486        1.4531089314
 Ti        -0.0303067446        0.0220395881       -0.0301019132
  O         0.7490576733        3.8374066917        1.4602010764
  O         3.9356959740        0.7418086694        1.5363110580
  O         1.6085370842        1.5267230407        0.0498829607
  O         3.1169978145        3.1112350083        0.1059318018
       6
 i =       13, time =       13.000, E =      -180.7772960877
 Ti         2.3198093452        2.3378209998        1.4474141007
 Ti        -0.0330326002        0.0236826619       -0.0347916473
  O         0.7372520070        3.8449274469        1.4647251668
  O         3.9540519240        0.7257278758        1.5419990523
  O         1.6286935155        1.5384298121        0.0594387295
  O         3.1057668566        3.0977739691        0.1177942684
       6
 i =       14, time =       14.000, E =      -180.7700568735
 Ti         2.3168743963        2.3402275491        1.4414611182
 Ti        -0.0356138927        0.0250936232       -0.0397389220
  O         0.7277158329        3.8505184303        1.4706468919
  O         3.9703785323        0.7117714303        1.5476057721
  O         1.6473632337        1.5482394750        0.0696657679
  O         3.0966270922        3.0859496401        0.1296081846
       6
 i =       15, time =       15.000, E =      -180.7618814208
 Ti         2.3132846923        2.3430926156        1.4350650744
 Ti        -0.0381385136        0.0262763300       -0.0451507185
  O         0.7203061535        3.8541321373        1.4783049767
  O         3.9851798355        0.6997499635        1.5532432316
  O         1.6652495232        1.5561717314        0.0808870184
  O         3.0895349887        3.0754974873        0.1418260460
       6
 i =       16, time =       16.000, E =      -180.7551035084
 Ti         2.3093159701        2.3462029837        1.4289354484
 Ti        -0.0403460863        0.0270607417       -0.0504858034
  O         0.7159084349        3.8552008905        1.4869807723
  O         3.9968572645        0.6910834773        1.5582089762
  O         1.6805010181        1.5611521568        0.0918453582
  O         3.0854470736        3.0676242052        0.1531478399
       6
 i =       17, time =       17.000, E =      -180.7502057086
 Ti         2.3047212380        2.3497643760        1.4228989418
 Ti        -0.0423260765        0.0274271885       -0.0559578592
  O         0.7143776553        3.8536819304        1.4970266406
  O         4.0058159973        0.6855072183        1.5625638717
  O         1.6937153603        1.5631799441        0.1028684177
  O         3.0843757477        3.0621246290        0.1639336599
       6
 i =       18, time =       18.000, E =      -180.7491015047
 Ti         2.2995587291        2.3537556058        1.4172447995
 Ti        -0.0440099692        0.0273010449       -0.0613771294
  O         0.7158127662        3.8495406953        1.5081403520
  O         4.0116803394        0.6833336572        1.5660085647
  O         1.7044694918        1.5619343471        0.1134996311
  O         3.0865813045        3.0593266351        0.1737328415
       6
 i =       19, time =       19.000, E =      -180.7523607019
 Ti         2.2938526214        2.3581779251        1.4121797145
 Ti        -0.0453675262        0.0266309586       -0.0666186403
  O         0.7201600633        3.8428668430        1.5201476325
  O         4.0143630397        0.6846610531        1.5683461303
  O         1.7126566696        1.5572586723        0.1234389538
  O         3.0921650727        3.0593521322        0.1823094027
       6
 i =       20, time =       20.000, E =      -180.7604944530
 Ti         2.2876577276        2.3630129124        1.4078792034
 Ti        -0.0463872068        0.0253920647       -0.0715688585
  O         0.7272397580        3.8338772279        1.5329061629
  O         4.0139510738        0.6894234021        1.5694554591
  O         1.7182824848        1.5491580317        0.1323919077
  O         3.1010670522        3.0621655067        0.1895127014
       6
 i =       21, time =       21.000, E =      -180.7724551138
 Ti         2.2809027292        2.3683422338        1.4043696616
 Ti        -0.0470995557        0.0235542569       -0.0762567367
  O         0.7369447177        3.8226634400        1.5465690583
  O         4.0106614715        0.6975303832        1.5693267890
  O         1.7215694349        1.5375970681        0.1402956022
  O         3.1132949438        3.0676611302        0.1954376842
       6
 i =       22, time =       22.000, E =      -180.7857759192
 Ti         2.2734224138        2.3743210033        1.4016086177
 Ti        -0.0475555015        0.0210704218       -0.0807920521
  O         0.7493189073        3.8090854597        1.5614392412
  O         4.0046833918        0.7090048706        1.5679878612
  O         1.7227737162        1.5224396376        0.1471981030
  O         3.1289793190        3.0757935458        0.2002743970
       6
 i =       23, time =       23.000, E =      -180.8016775064
 Ti         2.2655772779        2.3806227227        1.3996518698
 Ti        -0.0477846128        0.0180988021       -0.0849758025
  O         0.7635182131        3.7939769457        1.5766650573
  O         3.9967160631        0.7229442342        1.5656239409
  O         1.7220941847        1.5048245567        0.1526788101
  O         3.1469585181        3.0858911984        0.2039176147
       6
 i =       24, time =       24.000, E =      -180.8144486455
 Ti         2.2575629830        2.3870999584        1.3984605044
 Ti        -0.0478581265        0.0147674611       -0.0887930635
  O         0.7790360482        3.7778956330        1.5918770695
  O         3.9874500826        0.7385336666        1.5624870840
  O         1.7198803860        1.4855863742        0.1566739772
  O         3.1663957222        3.0974285148        0.2064762110
       6
 i =       25, time =       25.000, E =      -180.8277114692
 Ti         2.2493623144        2.3937640443        1.3979166450
 Ti        -0.0478972227        0.0111766892       -0.0924276661
  O         0.7957783825        3.7610367039        1.6072962970
  O         3.9773540862        0.7552826937        1.5588137300
  O         1.7164559053        1.4649660675        0.1593375117
  O         3.1870851010        3.1101922790        0.2081794585
       6
 i =       26, time =       26.000, E =      -180.8379861909
 Ti         2.2408990271        2.4006643661        1.3978926145
 Ti        -0.0479806620        0.0073619381       -0.0960018895
  O         0.8137129406        3.7434164050        1.6232535995
  O         3.9667543464        0.7729256202        1.5547974894
  O         1.7120771243        1.4431131544        0.1608571518
  O         3.2089559603        3.1240704505        0.2092634500
       6
 i =       27, time =       27.000, E =      -180.8446797877
 Ti         2.2323829153        2.4076040853        1.3982615095
 Ti        -0.0481896663        0.0035001373       -0.0995218110
  O         0.8321924370        3.7255000728        1.6394543186
  O         3.9562597439        0.7907189007        1.5507512323
  O         1.7071071720        1.4210225859        0.1613816749
  O         3.2310887079        3.1384461578        0.2099159503
       6
 i =       28, time =       28.000, E =      -180.8486127824
 Ti         2.2239956172        2.4144009702        1.3988892606
 Ti        -0.0486003475       -0.0002368954       -0.1030024013
  O         0.8507480633        3.7076771530        1.6555813973
  O         3.9463778954        0.8079291267        1.5469486960
  O         1.7018696642        1.3994451699        0.1611007733
  O         3.2528230982        3.1527608667        0.2103096575
       6
 i =       29, time =       29.000, E =      -180.8486434300
 Ti         2.2156236766        2.4211156954        1.3996736351
 Ti        -0.0492955761       -0.0038102110       -0.1065712376
  O         0.8696202794        3.6898078817        1.6719421532
  O         3.9372340568        0.8244002189        1.5434883125
  O         1.6964604816        1.3782844998        0.1601880020
  O         3.2743870874        3.1670631469        0.2106152891
       6
 i =       30, time =       30.000, E =      -180.8463484884
 Ti         2.2075944212        2.4274410382        1.4004879587
 Ti        -0.0503211590       -0.0069890580       -0.1101565927
  O         0.8879539701        3.6726619352        1.6880921695
  O         3.9294358967        0.8392299369        1.5406055402
  O         1.6912281550        1.3586520248        0.1588365294
  O         3.2947581269        3.1807608791        0.2109581487
       6
 i =       31, time =       31.000, E =      -180.8427875274
 Ti         2.1997469087        2.4334558250        1.4012707017
 Ti        -0.0517636666       -0.0097502992       -0.1138787926
  O         0.9059850559        3.6558339826        1.7045219235
  O         3.9230433349        0.8525970139        1.5382982484
  O         1.6861809773        1.3403393918        0.1571546015
  O         3.3142575342        3.1941098320        0.2114509741
       6
 i =       32, time =       32.000, E =      -180.8376019446
 Ti         2.1923125167        2.4389341692        1.4019389416
 Ti        -0.0536469941       -0.0119275435       -0.1176560185
  O         0.9231842613        3.6397327692        1.7208109687
  O         3.9184158175        0.8640141226        1.5366547016
  O         1.6815556257        1.3238917326        0.1552949233
  O         3.3324153345        3.2066566888        0.2121577963
       6
 i =       33, time =       33.000, E =      -180.8320400546
 Ti         2.1851999142        2.4438946084        1.4024553622
 Ti        -0.0560578214       -0.0134670853       -0.1215602525
  O         0.9398087876        3.6241693358        1.7372099818
  O         3.9156119540        0.8735140216        1.5356388848
  O         1.6773596869        1.3091079395        0.1533077453
  O         3.3495387241        3.2184943296        0.2131465335
       6
 i =       34, time =       34.000, E =      -180.8264224999
 Ti         2.1786448830        2.4481240550        1.4027697740
 Ti        -0.0589705572       -0.0142495226       -0.1254727749
  O         0.9552463868        3.6096984190        1.7533391495
  O         3.9147875567        0.8806939847        1.5352319131
  O         1.6737765945        1.2965411671        0.1513072607
  O         3.3650675507        3.2292350083        0.2144144787
       6
 i =       35, time =       35.000, E =      -180.8215225343
 Ti         2.1725758276        2.4516211564        1.4028632083
 Ti        -0.0624637556       -0.0142239067       -0.1294369375
  O         0.9695717360        3.5961215388        1.7696120375
  O         3.9159501188        0.8855977464        1.5353379185
  O         1.6708034593        1.2860881189        0.1493087579
  O         3.3792626214        3.2390774822        0.2159878864
       6
 i =       36, time =       36.000, E =      -180.8180342568
 Ti         2.1669395583        2.4543612134        1.4027173037
 Ti        -0.0666262444       -0.0133212684       -0.1334855402
  O         0.9828896377        3.5832139417        1.7863674073
  O         3.9191353148        0.8882465591        1.5358541800
  O         1.6684406685        1.2776272532        0.1473062662
  O         3.3924375435        3.2482129153        0.2178931222
       6
 i =       37, time =       37.000, E =      -180.8153487041
 Ti         2.1621539599        2.4560948465        1.4023393829
 Ti        -0.0711966433       -0.0115544702       -0.1373185770
  O         0.9942732276        3.5718433300        1.8025058876
  O         3.9240588412        0.8885019402        1.5366032616
  O         1.6668669120        1.2716825083        0.1454428196
  O         3.4038258887        3.2560668794        0.2199874646
       6
 i =       38, time =       38.000, E =      -180.8137656715
 Ti         2.1581132225        2.4568372213        1.4017264650
 Ti        -0.0762678149       -0.0088819649       -0.1409791291
  O         1.0040071455        3.5617591739        1.8184523714
  O         3.9306860944        0.8865033685        1.5374276710
  O         1.6660368415        1.2680018051        0.1436643460
  O         3.4138062962        3.2628704269        0.2222974336
       6
 i =       39, time =       39.000, E =      -180.8133974514
 Ti         2.1548647082        2.4565582674        1.4008919877
 Ti        -0.0817627641       -0.0053414533       -0.1443709586
  O         1.0119613594        3.5531111288        1.8341878883
  O         3.9387744502        0.8824160134        1.5381206213
  O         1.6659519632        1.2665423426        0.1419691372
  O         3.4223176685        3.2685647404        0.2247733263
       6
 i =       40, time =       40.000, E =      -180.8141614520
 Ti         2.1523813930        2.4552487641        1.3998437704
 Ti        -0.0876827972       -0.0009361909       -0.1474509610
  O         1.0181642563        3.5458531648        1.8499625205
  O         3.9481833694        0.8764026026        1.5384640683
  O         1.6666004133        1.2672236789        0.1403152553
  O         3.4294389554        3.2731799146        0.2274023679
       6
 i =       41, time =       41.000, E =      -180.8150707161
 Ti         2.1506213510        2.4528877740        1.3985855049
 Ti        -0.0940662251        0.0043581830       -0.1501835238
  O         1.0226807503        3.5398669134        1.8660095781
  O         3.9588638991        0.8686010274        1.5382083853
  O         1.6679860936        1.2700199896        0.1386405098
  O         3.4352943223        3.2767582329        0.2301977086
       6
 i =       42, time =       42.000, E =      -180.8174334507
 Ti         2.1495691951        2.4494595182        1.3971383907
 Ti        -0.1008786938        0.0105098541       -0.1524838553
  O         1.0255317943        3.5350746096        1.8823179331
  O         3.9706904688        0.8592492725        1.5370655079
  O         1.6701117038        1.2749412673        0.1368907475
  O         3.4399266963        3.2793014755        0.2331499102
       6
 i =       43, time =       43.000, E =      -180.8202570901
 Ti         2.1492188528        2.4450760017        1.3955726339
 Ti        -0.1078915691        0.0172925872       -0.1542009075
  O         1.0267195303        3.5314691308        1.8985232527
  O         3.9832025992        0.8488916275        1.5347596600
  O         1.6729172293        1.2818546605        0.1350471834
  O         3.4432756003        3.2807489112        0.2361722773
       6
 i =       44, time =       44.000, E =      -180.8231515736
 Ti         2.1495229773        2.4398448910        1.3939517492
 Ti        -0.1149504243        0.0245220363       -0.1552276799
  O         1.0263606404        3.5289320068        1.9145434704
  O         3.9960099670        0.8379856459        1.5310232197
  O         1.6763492609        1.2906399669        0.1330607719
  O         3.4453740158        3.2811109414        0.2392179183
       6
 i =       45, time =       45.000, E =      -180.8260748162
 Ti         2.1504289888        2.4337844961        1.3923134370
 Ti        -0.1220426071        0.0321428969       -0.1554900672
  O         1.0246016045        3.5272704360        1.9305687751
  O         4.0089016935        0.8267609333        1.5255317762
  O         1.6804165755        1.3013234145        0.1308330598
  O         3.4463066521        3.2804253914        0.2423077884
       6
 i =       46, time =       46.000, E =      -180.8285399514
 Ti         2.1518942144        2.4269061609        1.3907035981
 Ti        -0.1291512380        0.0400913067       -0.1549086609
  O         1.0215744801        3.5263061712        1.9466546820
  O         4.0216376211        0.8154653308        1.5179432215
  O         1.6851382046        1.3139196090        0.1282414022
  O         3.4461297916        3.2787182225        0.2454679698
       6
 i =       47, time =       47.000, E =      -180.8302952872
 Ti         2.1537623276        2.4197430255        1.3892910394
 Ti        -0.1357401815        0.0477042582       -0.1534813812
  O         1.0176585239        3.5259289202        1.9616794668
  O         4.0331059832        0.8052230935        1.5085458749
  O         1.6901786847        1.3274410658        0.1253460844
  O         3.4449275669        3.2761679037        0.2484967357
       6
 i =       48, time =       48.000, E =      -180.8317626131
 Ti         2.1559905151        2.4123088990        1.3881210402
 Ti        -0.1418295283        0.0549283229       -0.1512058353
  O         1.0130015931        3.5259723755        1.9758615989
  O         4.0432609854        0.7963082648        1.4971775992
  O         1.6955619265        1.3418664885        0.1220029620
  O         3.4427806618        3.2728441648        0.2514377712
       6
 i =       49, time =       49.000, E =      -180.8341626062
 Ti         2.1584819736        2.4048385291        1.3872750820
 Ti        -0.1472597752        0.0614942119       -0.1481792508
  O         1.0078627541        3.5263046427        1.9890141900
  O         4.0517775229        0.7892481538        1.4841559638
  O         1.7011549707        1.3568112340        0.1181632099
  O         3.4398215555        3.2689178515        0.2542442636
       6
 i =       50, time =       50.000, E =      -180.8348030308
 Ti         2.1612572696        2.3972487668        1.3867983729
 Ti        -0.1521245364        0.0674326082       -0.1444339651
  O         1.0022712779        3.5268329654        2.0014962115
  O         4.0587249994        0.7841783370        1.4694745515
  O         1.7070540515        1.3725068312        0.1136293754
  O         3.4360734676        3.2644140407        0.2569860682
       6
 i =       51, time =       51.000, E =      -180.8352186813
 Ti         2.1643069836        2.3895667233        1.3867449982
 Ti        -0.1564335470        0.0726725177       -0.1400578248
  O         0.9962878704        3.5274910338        2.0133249114
  O         4.0640251869        0.7813054340        1.4533809266
  O         1.7132839176        1.3889013495        0.1082367781
  O         3.4315894703        3.2594035376        0.2596891764
       6
 i =       52, time =       52.000, E =      -180.8355140372
 Ti         2.1676919598        2.3816761252        1.3871750397
 Ti        -0.1602743306        0.0772341440       -0.1350757691
  O         0.9898197290        3.5282515418        2.0247021877
  O         4.0676887218        0.7807733301        1.4357895310
  O         1.7199842511        1.4061755394        0.1016983427
  O         3.4263330651        3.2538534110        0.2624252456
       6
 i =       53, time =       53.000, E =      -180.8357182466
 Ti         2.1712317491        2.3740380661        1.3881179418
 Ti        -0.1634577489        0.0808076161       -0.1298909855
  O         0.9832107115        3.5290556225        2.0350274089
  O         4.0694839878        0.7827426604        1.4179148282
  O         1.7267898714        1.4232892253        0.0942056274
  O         3.4206622938        3.2481264826        0.2650601768
       6
 i =       54, time =       54.000, E =      -180.8355091504
 Ti         2.1749666801        2.3666180477        1.3896177901
 Ti        -0.1660537621        0.0833949813       -0.1246095269
  O         0.9763805137        3.5299066311        2.0444802494
  O         4.0694729654        0.7872766736        1.4000071071
  O         1.7337320195        1.4403616993        0.0855777997
  O         3.4146171024        3.2422263408        0.2676276483
       6
 i =       55, time =       55.000, E =      -180.8417784851
 Ti         2.1788350394        2.3595961774        1.3916717827
 Ti        -0.1680627333        0.0849330740       -0.1194847036
  O         0.9694334706        3.5307960378        2.0529746663
  O         4.0677484765        0.7942636125        1.3829227958
  O         1.7406206272        1.4569662948        0.0759227857
  O         3.4084110890        3.2363096674        0.2700808500
       6
 i =       56, time =       56.000, E =      -180.8411579775
 Ti         2.1828202904        2.3530568581        1.3942681538
 Ti        -0.1695783518        0.0855006715       -0.1146099248
  O         0.9624071270        3.5317302915        2.0605273149
  O         4.0644755200        0.8035227072        1.3671517527
  O         1.7473286418        1.4727667631        0.0653391865
  O         3.4021808302        3.2304512856        0.2724027275
       6
 i =       57, time =       57.000, E =      -180.8401712724
 Ti         2.1869993750        2.3469316653        1.3974409818
 Ti        -0.1706990986        0.0851392597       -0.1100294827
  O         0.9551874245        3.5327471998        2.0672985030
  O         4.0597777643        0.8150273257        1.3527078675
  O         1.7538623830        1.4878275403        0.0537392951
  O         3.3959058288        3.2245907211        0.2746248479
       6
 i =       58, time =       58.000, E =      -180.8389989564
 Ti         2.1911211405        2.3416308256        1.4009556161
 Ti        -0.1714430971        0.0839364030       -0.1061275708
  O         0.9482519887        3.5338092172        2.0728900807
  O         4.0541799936        0.8278006572        1.3407400716
  O         1.7597301061        1.5011236329        0.0419515936
  O         3.3900384488        3.2191345233        0.2766016260
       6
 i =       59, time =       59.000, E =      -180.8377063893
 Ti         2.1951714974        2.3371829082        1.4047277520
 Ti        -0.1719087629        0.0820046496       -0.1029776499
  O         0.9416783902        3.5349368711        2.0773176334
  O         4.0479735634        0.8414977692        1.3314946511
  O         1.7648544594        1.5125615910        0.0301425206
  O         3.3846400459        3.2141531448        0.2783200651
       6
 i =       60, time =       60.000, E =      -180.8365456922
 Ti         2.1991486238        2.3335891231        1.4086724246
 Ti        -0.1721941542        0.0794600719       -0.1006084272
  O         0.9355216423        3.5361565202        2.0806160948
  O         4.0414107027        0.8558471918        1.3250915655
  O         1.7692049705        1.5220675839        0.0184471046
  O         3.3797347416        3.2097049953        0.2797739251
       6
 i =       61, time =       61.000, E =      -180.8353716994
 Ti         2.2031922325        2.3307231480        1.4128431343
 Ti        -0.1724015361        0.0763205315       -0.0989491796
  O         0.9296083833        3.5375419867        2.0829286028
  O         4.0344757005        0.8710684795        1.3213615697
  O         1.7729185007        1.5298710905        0.0066326468
  O         3.3751665455        3.2056995410        0.2810052698
       6
 i =       62, time =       62.000, E =      -180.8403404580
 Ti         2.2072031207        2.3286548298        1.4170484802
 Ti        -0.1726151493        0.0727684017       -0.0980367843
  O         0.9241109777        3.5390943920        2.0842260245
  O         4.0275332428        0.8864229863        1.3203866275
  O         1.7759008570        1.5356837756       -0.0047511717
  O         3.3710614512        3.2023054183        0.2819731975
       6
 i =       63, time =       63.000, E =      -180.8396080890
 Ti         2.2112017402        2.3272659145        1.4213599904
 Ti        -0.1729209048        0.0688560495       -0.0978322546
  O         0.9189501803        3.5408779667        2.0845668528
  O         4.0206606857        0.9017737738        1.3220718715
  O         1.7782166602        1.5395500576       -0.0155958806
  O         3.3673715790        3.1995399550        0.2826793769
       6
 i =       64, time =       64.000, E =      -180.8390411607
 Ti         2.2152406782        2.3265191294        1.4257519353
 Ti        -0.1734030753        0.0646228469       -0.0983039408
  O         0.9140464941        3.5429620057        2.0839800833
  O         4.0139389006        0.9170730736        1.3263604787
  O         1.7799216370        1.5414936678       -0.0257777186
  O         3.3640574942        3.1974301780        0.2831203295
       6
 i =       65, time =       65.000, E =      -180.8380555863