   This run of MOLCAS is using the pymolcas driver

                             OPE
                             OPE          NMOL  CASOP  ENMOLC A   SO
                 OPE        NMOLC        AS  OP EN  MO LC     AS  OP
                OPENM       OL CA        SO  PE NM  OL CA     SOP EN
                OP EN      MO   LC       AS  OP ENMOL  CASO   PENMOL
                OP  EN     MO   LC       AS  OP EN     MO     LC ASO
               OP   E  NMOL  C  AS       OP  EN MO     LC     AS  OP
               OP  E   NMO   LC AS        OPEN  MO     LCASOP EN   M
               O  PEN   MO  LCA  SO
            OPE   NMO   L   CAS    OP
        OPENMOL  CASOP     ENMOL   CASOPE
     OPENMOLCA   SOPENMOLCASOPEN   MOLCASOPE
    OPENMOLCAS   OP           EN   MOL    CAS
    OPENMOLCAS       OP  ENM        O     LCA
    OPENMOLCAS    OPEN  MOLCASO     P  E  NMO
    OPENMOLCAS     OP               E  N  MOL
    OPENMOLCA   SO           PENM   O  L  CAS    OPEN    MO    LCAS
    OPENMOLCA   SOP           ENM   O  L  CAS   OP  EN  MOLC  AS   O
    OPENMOLCA   SOPE           NM      O  LCA   S      OP  EN MO
    OPENMOLC                AS         O  PEN   M      OL  CA  SOPE
    OPENMO        LCASOPE  NMOL        C  ASO   P      ENMOLC     AS
    OPE     NMO      LCA  SO     P     E   NM   OL  CA SO  PE N   MO
          OPENMOLCA            SOPE   NMO        LCAS  O    P  ENMO
     OPENMOLCASOPENMOLCASOPENMOLCASOPENMOLCA
        OPENMOLCASOPENMOLCASOPENMOLCASOPE
            OPENMOLCASOPENMOLCASOPENM
               OPENMOLCASOPENMOLCA        version: 22.02
                   OPENMOLCASO
                       OPE                tag: 112-ge90b629

 OpenMolcas is free software; you can redistribute it and/or modify it
 under the terms of the GNU Lesser General Public License version 2.1.
 OpenMolcas is distributed in the hope that it will be useful, but it
 is provided "as is" and without any express or implied warranties.
 For more details see the full text of the license in the file
 LICENSE or in <http://www.gnu.org/licenses/>.

                 Copyright (C) The OpenMolcas Authors
           For the author list and the recommended citation,
                   consult the file CONTRIBUTORS.md

           *************************************************
           * pymolcas version py2.22                       *
           *   build 8f5156e7c298caa029894eefd30f00af      *
           *   (after the EMIL interpreter by V. Veryazov) *
           *************************************************

configuration info
------------------
Host name: d3070 (Linux)
C Compiler ID: Intel
C flags: -O2 -fpic -march=skylake-avx512 -std=gnu99 -gcc-sys -qopenmp
Fortran Compiler ID: Intel
Fortran flags: -O2 -fpic -march=skylake-avx512  -fpp -i8 -r8 -heap-arrays -qopenmp
Definitions: _MOLCAS_;_I8_;_LINUX_;_MOLCAS_MPP_;_SCALAPACK_;_GA_
Parallel: ON (GA=ON)


   --------------------------------------------------------------------------------------
  |
  |              Project: atrocious-C1
  |       Submitted from: /work/donglab/kaufold.b/Label-Tutorial
  |         Scratch area: /scratch/kaufold.b/OpenMolcas/29147534_0/atrocious-C1
  |      Save outputs to: /work/donglab/kaufold.b/Label-Tutorial/atrocious-C1
  |               Molcas: /shared/centos7/openmolcas/22.02-intel-cascadelake-wfa
  |
  | Scratch area is empty
  |
  |       MOLCAS_DRIVER = /shared/centos7/openmolcas/22.02-intel-cascadelake-wfa/pymolcas
  | MOLCAS_KEEP_WORKDIR = NO
  |      MOLCAS_MAXITER = 10000
  |       MOLCAS_MAXMEM = 51975
  |       MOLCAS_MOLDEN = ON
  | MOLCAS_NEW_DEFAULTS = NO
  |       MOLCAS_NPROCS = 1
  |         MOLCAS_SAVE = ORIG
  |       MOLCAS_SOURCE = /shared/centos7/openmolcas/22.02-intel-cascadelake-wfa
  |    MOLCAS_STRUCTURE = 0
  |      MOLCAS_TIMELIM = 21360
  |     MOLCAS_VALIDATE = YES
  |
   --------------------------------------------------------------------------------------


--- Start Module: gateway at Tue Jul 19 10:58:16 2022 ---

-- Input validation for gateway
lxml python module not found, no validation possible
--
 
()()()()()()()()()()()()()()()()()()()()()()()()()()()()()()()()()()()()()()()()()()()()()()()()()()

                                              &GATEWAY

                       only a single process is used, running in SERIAL mode
                       available to each process: 46 GB of memory, 16 threads
                                            pid: 195085
()()()()()()()()()()()()()()()()()()()()()()()()()()()()()()()()()()()()()()()()()()()()()()()()()()
 
 
 Title:
                                    Benzene MR with Symmetry                            
 
 
++    Symmetry information:
      ---------------------
 
                    Character Table for C1 
 
                             E  
                    a        1  x, y, xy, Rz, z, xz, Ry, yz, Rx, I
--
 
 
++    Basis set information:
      ----------------------
 
 
      Basis set label: H.AUG-CC-PVTZ.........
 
      Electronic valence basis set:
      ------------------
      Associated Effective Charge   1.000000 au
      Associated Actual Charge      1.000000 au
      Nuclear Model: Point charge
 
      Shell  nPrim  nBasis  Cartesian Spherical Contaminant
         s       6       4        X                  
         p       3       3        X                  
         d       2       2                 X         
 
 
      Basis set label: C.AUG-CC-PVTZ.........
 
      Electronic valence basis set:
      ------------------
      Associated Effective Charge   6.000000 au
      Associated Actual Charge      6.000000 au
      Nuclear Model: Point charge
 
      Shell  nPrim  nBasis  Cartesian Spherical Contaminant
         s      11       5        X                  
         p       6       4        X                  
         d       3       3                 X         
         f       2       2                 X         
 
 
      Basis set label: H.AUG-CC-PVTZ.........
 
      Electronic valence basis set:
      ------------------
      Associated Effective Charge   1.000000 au
      Associated Actual Charge      1.000000 au
      Nuclear Model: Point charge
 
      Shell  nPrim  nBasis  Cartesian Spherical Contaminant
         s       6       4        X                  
         p       3       3        X                  
         d       2       2                 X         
 
 
      Basis set label: C.AUG-CC-PVTZ.........
 
      Electronic valence basis set:
      ------------------
      Associated Effective Charge   6.000000 au
      Associated Actual Charge      6.000000 au
      Nuclear Model: Point charge
 
      Shell  nPrim  nBasis  Cartesian Spherical Contaminant
         s      11       5        X                  
         p       6       4        X                  
         d       3       3                 X         
         f       2       2                 X         
 
 
      Basis set label: H.AUG-CC-PVTZ.........
 
      Electronic valence basis set:
      ------------------
      Associated Effective Charge   1.000000 au
      Associated Actual Charge      1.000000 au
      Nuclear Model: Point charge
 
      Shell  nPrim  nBasis  Cartesian Spherical Contaminant
         s       6       4        X                  
         p       3       3        X                  
         d       2       2                 X         
 
 
      Basis set label: C.AUG-CC-PVTZ.........
 
      Electronic valence basis set:
      ------------------
      Associated Effective Charge   6.000000 au
      Associated Actual Charge      6.000000 au
      Nuclear Model: Point charge
 
      Shell  nPrim  nBasis  Cartesian Spherical Contaminant
         s      11       5        X                  
         p       6       4        X                  
         d       3       3                 X         
         f       2       2                 X         
 
 
      Basis set label: H.AUG-CC-PVTZ.........
 
      Electronic valence basis set:
      ------------------
      Associated Effective Charge   1.000000 au
      Associated Actual Charge      1.000000 au
      Nuclear Model: Point charge
 
      Shell  nPrim  nBasis  Cartesian Spherical Contaminant
         s       6       4        X                  
         p       3       3        X                  
         d       2       2                 X         
--
 
 
++    Molecular structure info:
      -------------------------
 
                    ************************************************ 
                    **** Cartesian Coordinates / Bohr, Angstrom **** 
                    ************************************************ 
 
     Center  Label                x              y              z                     x              y              z
        1      H1               0.000000       4.672658       0.000000              0.000000       2.472664       0.000000
        2      H2               4.047232       2.335660       0.000000              2.141703       1.235978       0.000000
        3      C3               0.000000       2.628293       0.000000              0.000000       1.390833       0.000000
        4      H4              -4.047232       2.335660       0.000000             -2.141703       1.235978       0.000000
        5      C5               2.276482       1.314007       0.000000              1.204663       0.695343       0.000000
        6      C6              -2.276482       1.314007       0.000000             -1.204663       0.695343       0.000000
        7      C7               2.276482      -1.314007       0.000000              1.204663      -0.695343       0.000000
        8      C8              -2.276482      -1.314007       0.000000             -1.204663      -0.695343       0.000000
        9      H9               4.047232      -2.335660       0.000000              2.141703      -1.235978       0.000000
       10      C10              0.000000      -2.628293       0.000000              0.000000      -1.390833       0.000000
       11      H11             -4.047232      -2.335660       0.000000             -2.141703      -1.235978       0.000000
       12      H12              0.000000      -4.672658       0.000000              0.000000      -2.472664       0.000000
 
                    *************************************** 
                    *    InterNuclear Distances / Bohr    * 
                    *************************************** 
 
               1 H1            2 H2            3 C3            4 H4            5 C5            6 C6    
    1 H1       0.000000
    2 H2       4.673505        0.000000
    3 C3       2.044365        4.057798        0.000000
    4 H4       4.673505        8.094465        4.057798        0.000000
    5 C5       4.057451        2.044341        2.628635        6.405712        0.000000
    6 C6       4.057451        6.405712        2.628635        2.044341        4.552965        0.000000
    7 C7       6.404883        4.056553        4.552373        7.301331        2.628014        5.256990
    8 C8       6.404883        7.301331        4.552373        4.056553        5.256990        2.628014
    9 H9       8.092997        4.671319        6.404757        9.345672        4.056553        7.301331
   10 C10      7.300951        6.404757        5.256586        6.404757        4.552373        4.552373
   11 H11      8.092997        9.345672        6.404757        4.671319        7.301331        4.056553
   12 H12      9.345316        8.092997        7.300951        8.092997        6.404883        6.404883
 
               7 C7            8 C8            9 H9           10 C10          11 H11          12 H12   
    7 C7       0.000000
    8 C8       4.552965        0.000000
    9 H9       2.044341        6.405712        0.000000
   10 C10      2.628635        2.628635        4.057798        0.000000
   11 H11      6.405712        2.044341        8.094465        4.057798        0.000000
   12 H12      4.057451        4.057451        4.673505        2.044365        4.673505        0.000000
 
                    ******************************************* 
                    *    InterNuclear Distances / Angstrom    * 
                    ******************************************* 
 
               1 H1            2 H2            3 C3            4 H4            5 C5            6 C6    
    1 H1       0.000000
    2 H2       2.473112        0.000000
    3 C3       1.081831        2.147294        0.000000
    4 H4       2.473112        4.283406        2.147294        0.000000
    5 C5       2.147111        1.081819        1.391014        3.389757        0.000000
    6 C6       2.147111        3.389757        1.391014        1.081819        2.409325        0.000000
    7 C7       3.389318        2.146635        2.409012        3.863698        1.390685        2.781879
    8 C8       3.389318        3.863698        2.409012        2.146635        2.781879        1.390685
    9 H9       4.282630        2.471956        3.389252        4.945517        2.146635        3.863698
   10 C10      3.863497        3.389252        2.781666        3.389252        2.409012        2.409012
   11 H11      4.282630        4.945517        3.389252        2.471956        3.863698        2.146635
   12 H12      4.945328        4.282630        3.863497        4.282630        3.389318        3.389318
 
               7 C7            8 C8            9 H9           10 C10          11 H11          12 H12   
    7 C7       0.000000
    8 C8       2.409325        0.000000
    9 H9       1.081819        3.389757        0.000000
   10 C10      1.391014        1.391014        2.147294        0.000000
   11 H11      3.389757        1.081819        4.283406        2.147294        0.000000
   12 H12      2.147111        2.147111        2.473112        1.081831        2.473112        0.000000
 
                    ************************************** 
                    *    Valence Bond Angles / Degree    * 
                    ************************************** 
                          Atom centers                 Phi
                      1 H1       3 C3       5 C5       120.00
                      1 H1       3 C3       6 C6       120.00
                      5 C5       3 C3       6 C6       120.00
                      2 H2       5 C5       3 C3       120.02
                      2 H2       5 C5       7 C7       119.98
                      3 C3       5 C5       7 C7       120.00
                      3 C3       6 C6       4 H4       120.02
                      3 C3       6 C6       8 C8       120.00
                      4 H4       6 C6       8 C8       119.98
                      5 C5       7 C7       9 H9       119.98
                      5 C5       7 C7      10 C10      120.00
                      9 H9       7 C7      10 C10      120.02
                      6 C6       8 C8      10 C10      120.00
                      6 C6       8 C8      11 H11      119.98
                     10 C10      8 C8      11 H11      120.02
                      7 C7      10 C10      8 C8       120.00
                      7 C7      10 C10     12 H12      120.00
                      8 C8      10 C10     12 H12      120.00
 
           ***************************************************************
           *              Valence Dihedral Angles / Degree               *
           ***************************************************************
                    Atom centers                       Phi1     Phi2     Theta 
           1 H1       3 C3       5 C5       2 H2        120.00   120.02     0.00
           1 H1       3 C3       5 C5       7 C7        120.00   120.00  -180.00
           6 C6       3 C3       5 C5       7 C7        120.00   120.00     0.00
           1 H1       3 C3       6 C6       4 H4        120.00   120.02     0.00
           1 H1       3 C3       6 C6       8 C8        120.00   120.00  -180.00
           5 C5       3 C3       6 C6       8 C8        120.00   120.00     0.00
           2 H2       5 C5       3 C3       6 C6        120.02   120.00  -180.00
           2 H2       5 C5       7 C7       9 H9        119.98   119.98     0.00
           2 H2       5 C5       7 C7      10 C10       119.98   120.00  -180.00
           3 C3       5 C5       7 C7       9 H9        120.00   119.98  -180.00
           3 C3       5 C5       7 C7      10 C10       120.00   120.00     0.00
           4 H4       6 C6       3 C3       5 C5        120.02   120.00  -180.00
           3 C3       6 C6       8 C8      10 C10       120.00   120.00     0.00
           3 C3       6 C6       8 C8      11 H11       120.00   119.98  -180.00
           4 H4       6 C6       8 C8      10 C10       119.98   120.00  -180.00
           4 H4       6 C6       8 C8      11 H11       119.98   119.98     0.00
           5 C5       7 C7      10 C10      8 C8        120.00   120.00     0.00
           5 C5       7 C7      10 C10     12 H12       120.00   120.00  -180.00
           9 H9       7 C7      10 C10     12 H12       120.02   120.00     0.00
           6 C6       8 C8      10 C10      7 C7        120.00   120.00     0.00
           6 C6       8 C8      10 C10     12 H12       120.00   120.00  -180.00
          11 H11      8 C8      10 C10     12 H12       120.02   120.00     0.00
           8 C8      10 C10      7 C7       9 H9        120.00   120.02  -180.00
           7 C7      10 C10      8 C8      11 H11       120.00   120.02  -180.00
--
 
 
            Nuclear Potential Energy            204.04227156 au
 
The total execution time is limited to 21360 seconds.
--- Stop Module: gateway at Tue Jul 19 10:58:16 2022 /rc=_RC_ALL_IS_WELL_ ---
*** files: xmldump
    saved to directory /work/donglab/kaufold.b/Label-Tutorial/atrocious-C1

--- Start Module: seward at Tue Jul 19 10:58:16 2022 ---

-- Input validation for seward
lxml python module not found, no validation possible
--
 
()()()()()()()()()()()()()()()()()()()()()()()()()()()()()()()()()()()()()()()()()()()()()()()()()()

                                              &SEWARD

                       only a single process is used, running in SERIAL mode
                       available to each process: 46 GB of memory, 16 threads
                                            pid: 195104
()()()()()()()()()()()()()()()()()()()()()()()()()()()()()()()()()()()()()()()()()()()()()()()()()()
 
               SEWARD will generate:
                  Multipole Moment integrals up to order  2
                  Kinetic Energy integrals
                  Nuclear Attraction integrals (point charge)
                  One-Electron Hamiltonian integrals
                  Velocity integrals
                  Orbital angular momentum around ( 0.0000  0.0000  0.0000 )
                  Velocity quadrupole around ( 0.0000  0.0000  0.0000 )
                  Two-Electron Repulsion integrals
 
 Title:
                                    Benzene MR with Symmetry                            
 
 
                   Integrals are discarded if absolute value <: 0.10E-13
                   Integral cutoff threshold is set to       <: 0.10E-15
 
            Nuclear Potential Energy            204.04227156 au
 
 
      Basis set specifications :
      Symmetry species         a  
      Basis functions          414
 
 
      Input file to MOLDEN was generated!
 
The total execution time is limited to 21360 seconds.
--- Stop Module: seward at Tue Jul 19 12:27:32 2022 /rc=_RC_ALL_IS_WELL_ ---
*** files: atrocious-C1.GssOrb atrocious-C1.guessorb.h5 atrocious-C1.guessorb.molden xmldump
    saved to directory /work/donglab/kaufold.b/Label-Tutorial/atrocious-C1
--- Module seward spent 1 hour 29 minutes 15 seconds ---

*** symbolic link created: INPORB -> atrocious-C1.GssOrb
--- Start Module: rasscf at Tue Jul 19 12:27:32 2022 ---

-- Input validation for rasscf
lxml python module not found, no validation possible
--
 
()()()()()()()()()()()()()()()()()()()()()()()()()()()()()()()()()()()()()()()()()()()()()()()()()()

                                              &RASSCF

                       only a single process is used, running in SERIAL mode
                       available to each process: 46 GB of memory, 16 threads
                                            pid: 202891
()()()()()()()()()()()()()()()()()()()()()()()()()()()()()()()()()()()()()()()()()()()()()()()()()()
 
 
      Header of the ONEINT file:
      --------------------------
      
      Integrals generated by Gateway/Seward, Tue Jul 19 10:58:17 2022
 
 
      OrdInt status: non-squared
 
 
      Cartesian coordinates in Angstrom:
      -----------------------------------------------------
      No.  Label        X            Y            Z        
      -----------------------------------------------------
       1   H1         0.00000000   2.47266405   0.00000000
       2   H2         2.14170318   1.23597787   0.00000000
       3   C3         0.00000000   1.39083283   0.00000000
       4   H4        -2.14170318   1.23597787   0.00000000
       5   C5         1.20466254   0.69534255   0.00000000
       6   C6        -1.20466254   0.69534255   0.00000000
       7   C7         1.20466254  -0.69534255   0.00000000
       8   C8        -1.20466254  -0.69534255   0.00000000
       9   H9         2.14170318  -1.23597787   0.00000000
      10   C10        0.00000000  -1.39083283   0.00000000
      11   H11       -2.14170318  -1.23597787   0.00000000
      12   H12        0.00000000  -2.47266405   0.00000000
      -----------------------------------------------------
      Nuclear repulsion energy =  204.04227156
 
++    Wave function specifications:
      -----------------------------
 
      Number of closed shell electrons          36
      Number of electrons in active shells       6
      Max number of holes in RAS1 space          0
      Max nr of electrons in RAS3 space          0
      Number of inactive orbitals               18
      Number of active orbitals                  6
      Number of secondary orbitals             390
      Spin quantum number                      0.0
      State symmetry                             1
--
 
++    Orbital specifications:
      -----------------------
 
      Symmetry species                           1
                                                 a
      Frozen orbitals                            0
      Inactive orbitals                         18
      Active orbitals                            6
      RAS1 orbitals                              0
      RAS2 orbitals                              6
      RAS3 orbitals                              0
      Secondary orbitals                       390
      Deleted orbitals                           0
      Number of basis functions                414
--
 
++    CI expansion specifications:
      ----------------------------
 
      Number of CSFs                           175
      Number of determinants                   210
      Number of root(s) required                 6
      Root chosen for geometry opt.              6
      CI roots used                              1     2     3     4     5     6
      weights                                0.167 0.167 0.167 0.167 0.167 0.167
      highest root included in the CI            6
      max. size of the explicit Hamiltonian    175
--
 
++    Optimization specifications:
      ----------------------------
 
      RASSCF algorithm: Conventional
      Maximum number of macro iterations       200
      Maximum number of SX iterations          100
      Threshold for RASSCF energy            0.100E-07
      Threshold for max MO rotation          0.100E+00
      Threshold for max BLB element          0.100E-03
      Level shift parameter                  0.500E+00
      Make Quasi-Newton update
--
 
      The MO-coefficients are taken from the file:
      /work/donglab/kaufold.b/Label-Tutorial/atrocious-C1.ScfOrb                                                                                                                                                                                                      
      Title: RKS-DFT orbitals / B3LYP                                                      
 
      Total molecular charge    0.00
 
      ************************************************************************************************************************
      *                                                                                                                      *
      *                                            Wave function control section                                             *
      *                                                                                                                      *
      ************************************************************************************************************************
 
 
                                         RASSCF iterations: Energy and convergence statistics
                                         ----------------------------------------------------
 
      Iter CI   SX   CI       RASSCF       Energy    max ROT     max BLB   max BLB  Level Ln srch  Step   QN   Walltime
          iter iter root      energy       change     param      element    value   shift minimum  type update hh:mm:ss
 Nr of preliminary CI iterations:   1
        1   1   12    0  -230.05441962    0.00E+00  -0.10E+00*   8 413 1 -0.87E-01*  0.62   0.00    SX    NO    0:04:44
        2   1    6    0  -230.08838914   -0.34E-01*  0.11E+00*  16 271 1 -0.17E-01*  0.62   0.00    SX    NO    0:02:18
        3   1    6    0  -230.09282322   -0.44E-02*  0.13E+00*  20  84 1  0.74E-02*  0.62   0.00    SX    NO    0:02:16
        4   1    6    0  -230.09475739   -0.19E-02*  0.15E+00*  22  33 1  0.50E-02*  0.62   0.00    SX    NO    0:02:13
        5   1    6    0  -230.09674436   -0.20E-02*  0.15E+00*  22  33 1  0.65E-02*  0.62   2.50    LS   YES    0:02:14
        6   1    7    0  -230.10108527   -0.43E-02*  0.15E+00*  16  19 1 -0.28E-01*  0.63   2.50    LS   YES    0:02:11
        7   1    7    0  -230.11931497   -0.18E-01*  0.93E-01   16  19 1 -0.55E-01*  0.62   1.82    QN   YES    0:02:19
        8   1    7    0  -230.10656208    0.13E-01*  0.41E+00*  16  19 1 -0.52E-01*  0.63  -0.50    QN   YES    0:02:20
        9   1   14    0  -230.17455040   -0.68E-01*  0.17E+00*  16  19 1 -0.64E-01*  0.61   1.68    LS   YES    0:02:14
       10   1   12    0  -230.19520744   -0.21E-01* -0.18E+00*  16  19 1 -0.42E-01*  0.62   2.15    QN   YES    0:02:23
       11   1    9    0  -230.21200975   -0.17E-01* -0.95E-01   12 206 1 -0.30E-01*  0.63   1.72    QN   YES    0:02:29
       12   1    9    0  -230.22112107   -0.91E-02* -0.89E-01   14  25 1  0.39E-01*  0.62   2.50    LS   YES    0:02:29
       13   1   12    0  -230.22643686   -0.53E-02*  0.18E+00*  14  25 1  0.52E-01*  0.60   2.22    QN   YES    0:02:29
       14   1   13    0  -230.23419506   -0.78E-02* -0.31E+00*  14  25 1  0.58E-01*  0.59   2.50    QN   YES    0:02:28
       15   1    7    0  -230.24806711   -0.14E-01* -0.21E+00*  14  25 1  0.66E-01*  0.60   2.50    LS   YES    0:02:29
       16   1    7    0  -230.25809964   -0.10E-01* -0.36E+00*  14  25 1  0.81E-01*  0.59   2.50    QN   YES    0:02:30
       17   1   10    0  -230.27574686   -0.18E-01* -0.33E+00*  14  25 1  0.84E-01*  0.58   2.18    QN   YES    0:02:27
       18   1   17    0  -230.29767209   -0.22E-01* -0.40E+00*  16 109 1  0.83E-01*  0.53   1.42    QN   YES    0:02:26
       19   1   16    0  -230.30510933   -0.74E-02*  0.79E-01   16 109 1  0.86E-01*  0.52   0.78    QN   YES    0:02:17
       20   1   14    0  -230.31015013   -0.50E-02* -0.16E+00*  14  25 1  0.78E-01*  0.52   1.67    SX   YES    0:02:24
       21   1   12    0  -230.35313128   -0.43E-01* -0.13E+00*  16 109 1  0.48E-01*  0.51   2.33    LS   YES    0:02:23
       22   1   20    0  -230.37279996   -0.20E-01*  0.80E-01   15  82 1 -0.25E-01*  0.52   1.73    QN   YES    0:02:17
       23   1   23    0  -230.38485034   -0.12E-01*  0.10E+00*  23  35 1 -0.17E-01*  0.51   1.86    QN   YES    0:02:27
       24   1   13    0  -230.39173419   -0.69E-02*  0.83E-01   23  35 1 -0.11E-01*  0.51   2.24    LS   YES    0:02:31
       25   1    9    0  -230.39435602   -0.26E-02*  0.82E-01   15  84 1  0.15E-01*  0.51   1.50    QN   YES    0:02:34
       26   1   14    0  -230.39725945   -0.29E-02* -0.12E+00*  15  84 1  0.13E-01*  0.50   2.19    QN   YES    0:02:28
       27   1   14    0  -230.39993217   -0.27E-02* -0.67E-01   14  25 1 -0.95E-02*  0.50   1.75    LS   YES    0:02:26
       28   1   14    0  -230.40049591   -0.56E-03* -0.34E-01   14  25 1 -0.98E-02*  0.50   1.28    QN   YES    0:02:28
       29   1   13    0  -230.40117749   -0.68E-03* -0.74E-01   14  25 1 -0.76E-02*  0.50   1.92    QN   YES    0:02:27
       30   1   10    0  -230.40174851   -0.57E-03*  0.58E-01   14  25 1 -0.33E-02*  0.50   1.53    QN   YES    0:02:12
       31   1    8    0  -230.40203006   -0.28E-03*  0.58E-01   10  82 1  0.21E-02*  0.50   1.70    QN   YES    0:02:14
       32   1   13    0  -230.40223794   -0.21E-03*  0.43E-01   21  67 1 -0.18E-02*  0.50   1.63    QN   YES    0:02:16
       33   1   12    0  -230.40239467   -0.16E-03*  0.65E-01   14  25 1  0.27E-02*  0.50   2.00    QN   YES    0:02:18
       34   1   13    0  -230.40261884   -0.22E-03*  0.22E+00*  14  25 1  0.35E-02*  0.50   2.50    QN   YES    0:02:12
       35   1   10    0  -230.40350205   -0.88E-03*  0.16E+00*  18  20 1  0.80E-02*  0.48   2.50    LS   YES    0:02:13
       36   1   20    0  -230.40495273   -0.15E-02*  0.14E+00*  18  20 1  0.16E-01*  0.46   2.50    LS   YES    0:02:14
       37   1   22    0  -230.40799214   -0.30E-02*  0.60E-01   18  20 1  0.26E-01*  0.46   2.50    QN   YES    0:02:15
       38   1   20    0  -230.40855630   -0.56E-03*  0.97E-01   18  20 1  0.24E-01*  0.46   1.26    QN   YES    0:02:17
       39   1   30    0  -230.40773792    0.82E-03* -0.89E-01   18  20 1  0.21E-01*  0.46  -0.20    SX   YES    0:02:15
       40   1   11    0  -230.41405100   -0.63E-02* -0.99E-01   18  20 1  0.30E-01*  0.47   2.50    LS   YES    0:02:11
       41   1   11    0  -230.42567879   -0.12E-01* -0.11E+00*  18  20 1  0.34E-01*  0.48   2.50    LS   YES    0:02:13
       42   1   10    0  -230.44209788   -0.16E-01*  0.16E+00*  18  21 1  0.42E-01*  0.49   2.50    QN   YES    0:02:12
       43   1   30    0  -230.41606482    0.26E-01*  0.22E+00*  18  20 1  0.29E-01*  0.47  -0.50    QN   YES    0:02:13
       44   1   12    0  -230.44930870   -0.33E-01* -0.19E+00*  18  21 1  0.42E-01*  0.50   1.39    QN   YES    0:02:14
       45   1   10    0  -230.45689585   -0.76E-02*  0.13E+00*   7  21 1  0.43E-01*  0.50   0.77    QN   YES    0:02:14
       46   1   10    0  -230.45826630   -0.14E-02* -0.97E-01    7  21 1  0.47E-01*  0.51   0.71    QN   YES    0:02:10
       47   1   12    0  -230.44711814    0.11E-01* -0.17E+00*   7  21 1  0.52E-01*  0.50  -0.50    QN   YES    0:02:07
       48   1   12    0  -230.46670708   -0.20E-01* -0.11E+00*   7  21 1  0.36E-01*  0.52   1.46    QN   YES    0:02:09
       49   1   10    0  -230.46858059   -0.19E-02* -0.63E-01    9  21 1  0.33E-01*  0.52   0.64    QN   YES    0:02:00
       50   1   10    0  -230.46533371    0.32E-02*  0.57E-01    9  21 1  0.30E-01*  0.52  -0.50    SX   YES    0:02:00
       51   1   10    0  -230.47361469   -0.83E-02*  0.64E-01    9  21 1  0.20E-01*  0.52   2.50    LS   YES    0:02:13
       52   1   11    0  -230.47977902   -0.62E-02*  0.70E-01   13  21 1  0.11E-01*  0.53   2.50    LS   YES    0:02:18
       53   1   10    0  -230.48300794   -0.32E-02*  0.74E-01   22  29 1  0.64E-02*  0.53   1.53    QN   YES    0:02:12
       54   1   12    0  -230.48531690   -0.23E-02* -0.37E-01   10  21 1  0.71E-02*  0.53   1.20    QN   YES    0:02:18
       55   1   10    0  -230.48626036   -0.94E-03*  0.87E-01   22  29 1  0.73E-02*  0.53   1.70    QN   YES    0:02:17
       56   1   10    0  -230.48729499   -0.10E-02* -0.16E+00*  22  29 1  0.77E-02*  0.53   2.36    QN   YES    0:02:08
       57   1   11    0  -230.48909885   -0.18E-02* -0.22E+00*  22  29 1  0.79E-02*  0.53   2.08    QN   YES    0:02:13
       58   1   13    0  -230.49109241   -0.20E-02* -0.19E+00*  13  21 1 -0.88E-02*  0.53   1.72    QN   YES    0:02:18
       59   1   10    0  -230.49295011   -0.19E-02* -0.15E+00*  13  25 1 -0.10E-01*  0.53   1.83    QN   YES    0:02:15
       60   1   10    0  -230.49483209   -0.19E-02* -0.11E+00*  13  25 1 -0.11E-01*  0.52   2.20    QN   YES    0:02:12
       61   1   10    0  -230.49666319   -0.18E-02* -0.68E-01   13  25 1 -0.80E-02*  0.53   1.80    LS   YES    0:02:06
       62   1   11    0  -230.49710719   -0.44E-03* -0.25E-01   13  25 1 -0.62E-02*  0.53   1.26    QN   YES    0:02:20
       63   1   11    0  -230.49761220   -0.51E-03*  0.30E-01   13  25 1 -0.33E-02*  0.52   1.99    QN   YES    0:02:18
       64   1   10    0  -230.49808309   -0.47E-03* -0.29E-01   17  19 1 -0.24E-02*  0.52   1.57    QN   YES    0:02:17
       65   1   11    0  -230.49846691   -0.38E-03* -0.99E-01   17  19 1 -0.38E-02*  0.52   2.50    QN   YES    0:02:18
       66   1   11    0  -230.49995617   -0.15E-02* -0.88E-01   13  25 1  0.10E-01*  0.51   2.50    LS   YES    0:02:14
       67   1   12    0  -230.50167639   -0.17E-02* -0.20E+00*  13  25 1  0.16E-01*  0.51   2.50    QN   YES    0:02:17
       68   1   12    0  -230.50440501   -0.27E-02* -0.46E-01   13  25 1  0.30E-01*  0.50   1.40    QN   YES    0:02:20
       69   1   11    0  -230.50236056    0.20E-02* -0.12E+00*  13  25 1  0.31E-01*  0.50  -0.50    QN   YES    0:02:12
       70   1   11    0  -230.51046480   -0.81E-02* -0.25E+00*  13  25 1  0.35E-01*  0.49   2.50    QN   YES    0:02:15
       71   1   11    0  -230.52253799   -0.12E-01* -0.15E+00*  13  25 1  0.41E-01*  0.47   1.70    QN   YES    0:02:07
       72   1   11    0  -230.53274943   -0.10E-01*  0.13E+00*  13  25 1  0.37E-01*  0.46   1.93    QN   YES    0:01:49
       73   1   11    0  -230.54192858   -0.92E-02*  0.11E+00*  13  25 1  0.31E-01*  0.45   2.37    QN   YES    0:01:33
       74   1    9    0  -230.55301749   -0.11E-01*  0.15E+00*  14  25 1  0.28E-01*  0.45   2.20    QN   YES    0:01:47
       75   1   13    0  -230.56212738   -0.91E-02*  0.77E-01   14  25 1  0.20E-01*  0.44   2.06    QN   YES    0:02:01
       76   1   11    0  -230.56769510   -0.56E-02* -0.18E+00*  24  27 1 -0.99E-02*  0.44   1.14    QN   YES    0:02:12
       77   1   12    0  -230.57058918   -0.29E-02* -0.78E-01   24  27 1 -0.71E-02*  0.44   1.23    QN   YES    0:02:15
       78   1   12    0  -230.57202905   -0.14E-02*  0.11E+00*  24  27 1 -0.56E-02*  0.44   2.23    QN   YES    0:02:17
       79   1   11    0  -230.57365638   -0.16E-02*  0.75E-01   14  25 1 -0.79E-02*  0.44   1.85    LS   YES    0:02:06
       80   1   13    0  -230.57408743   -0.43E-03* -0.31E-01   14  25 1 -0.96E-02*  0.44   1.26    QN   YES    0:02:14
       81   1   10    0  -230.57470759   -0.62E-03* -0.40E-01   14  25 1 -0.67E-02*  0.43   2.50    LS   YES    0:02:16
       82   1   10    0  -230.57515863   -0.45E-03*  0.47E-01   14  25 1 -0.29E-02*  0.43   1.55    QN   YES    0:02:23
       83   1   11    0  -230.57557867   -0.42E-03*  0.89E-01   23  28 1  0.23E-02*  0.43   1.83    QN   YES    0:02:07
       84   1    9    0  -230.57609498   -0.52E-03*  0.18E+00*  14  25 1  0.39E-02*  0.43   2.05    QN   YES    0:01:49
       85   1   13    0  -230.57696566   -0.87E-03*  0.24E+00*  14  25 1  0.81E-02*  0.42   1.78    QN   YES    0:01:47
       86   1   16    0  -230.57793011   -0.96E-03*  0.17E+00*  14  25 1  0.12E-01*  0.41   1.37    QN   YES    0:01:17
       87   1   11    0  -230.57878463   -0.85E-03* -0.18E+00*  14  25 1  0.13E-01*  0.41   1.93    QN   YES    0:01:15
       88   1   11    0  -230.58020914   -0.14E-02* -0.14E+00*  14  25 1  0.11E-01*  0.41   2.18    QN   YES    0:01:31
       89   1   16    0  -230.58172750   -0.15E-02* -0.90E-01   14  25 1  0.49E-02*  0.41   1.83    LS   YES    0:01:19
       90   1   12    0  -230.58209925   -0.37E-03* -0.28E-01   11  25 1  0.32E-02*  0.41   1.26    QN   YES    0:01:39
       91   1    9    0  -230.58249235   -0.39E-03* -0.29E-01   11  25 1  0.23E-02*  0.41   2.15    LS   YES    0:02:06
       92   1    9    0  -230.58265436   -0.16E-03*  0.35E-01   14  25 1 -0.25E-02*  0.41   1.16    QN   YES    0:01:58
       93   1    8    0  -230.58286957   -0.22E-03*  0.72E-01   14  25 1 -0.16E-02*  0.41   2.50    QN   YES    0:01:52
       94   1    9    0  -230.58325688   -0.39E-03*  0.54E-01   19  51 1 -0.16E-02*  0.41   1.43    QN   YES    0:02:01
       95   1   15    0  -230.58344056   -0.18E-03*  0.49E-01   11  25 1 -0.21E-02*  0.40   1.80    QN   YES    0:01:50
       96   1   14    0  -230.58362020   -0.18E-03* -0.37E-01   11  25 1 -0.21E-02*  0.40   1.56    QN   YES    0:01:35
       97   1    9    0  -230.58375327   -0.13E-03* -0.23E-01   11  25 1 -0.13E-02*  0.40   1.50    QN   YES    0:01:51
       98   1    7    0  -230.58382736   -0.74E-04* -0.94E-02   13  26 1  0.59E-03*  0.40   1.30    QN   YES    0:01:56
       99   1    8    0  -230.58385849   -0.31E-04* -0.94E-02   13  26 1  0.53E-03*  0.40   1.32    QN   YES    0:01:48
      100   1    8    0  -230.58387910   -0.21E-04* -0.66E-02   11  25 1  0.60E-03*  0.40   1.22    QN   YES    0:01:28
      101   1   14    0  -230.58389279   -0.14E-04* -0.11E-01   11  25 1  0.50E-03*  0.40   1.51    QN   YES    0:01:29
      102   1    7    0  -230.58390594   -0.13E-04*  0.34E-02   13  26 1 -0.34E-03*  0.40   1.09    QN   YES    0:02:02
      103   1    7    0  -230.58391104   -0.51E-05*  0.50E-02   13  26 1 -0.31E-03*  0.40   2.50    LS   YES    0:01:54
      104   1    7    0  -230.58391167   -0.62E-06* -0.33E-02   14  26 1 -0.51E-03*  0.40   0.58    QN   YES    0:01:52
      105   1    7    0  -230.58391666   -0.50E-05* -0.17E-02   11  25 1 -0.20E-03*  0.40   1.20    QN   YES    0:01:57
      106   1   14    0  -230.58391940   -0.27E-05* -0.46E-02   11  78 1 -0.17E-03*  0.40   1.43    QN   YES    0:01:42
      107   1    7    0  -230.58392193   -0.25E-05* -0.11E-02   14  25 1 -0.33E-03*  0.40   0.84    QN   YES    0:01:24
      108   1   10    0  -230.58392238   -0.46E-06*  0.17E-02   11  77 1  0.25E-03*  0.40   0.73    QN   YES    0:01:11
      109   1    6    0  -230.58392339   -0.10E-05*  0.25E-02   11  78 1 -0.93E-04   0.40   2.50    LS   YES    0:01:37
      110   1   10    0  -230.58392392   -0.52E-06* -0.96E-03   14  25 1  0.14E-03*  0.40   0.89    QN   YES    0:01:34
      111   1    5    0  -230.58392449   -0.57E-06* -0.42E-02   14  25 1  0.12E-03*  0.40   1.72    QN   YES    0:01:20
      112   1    6    0  -230.58392533   -0.84E-06*  0.53E-03   11  25 1  0.91E-04   0.40   0.92    QN   YES    0:01:16
      113   1    6    0  -230.58392564   -0.31E-06* -0.71E-02   11  77 1  0.67E-04   0.40   2.50    QN   YES    0:01:22
      114   1   10    0  -230.58392660   -0.96E-06*  0.23E-02   11  25 1 -0.12E-03*  0.40   0.92    QN   YES    0:01:31
      115   1    6    0  -230.58392720   -0.59E-06*  0.18E-01   11  25 1 -0.11E-03*  0.40   2.50    QN   YES    0:01:26
      116   1    9    0  -230.58392963   -0.24E-05*  0.14E-01   17  26 1 -0.89E-04   0.40   1.33    QN   YES    0:01:16
      117   1   14    0  -230.58393139   -0.18E-05*  0.53E-01   17  26 1 -0.96E-04   0.40   2.50    QN   YES    0:01:15
      118   1   11    0  -230.58393722   -0.58E-05*  0.68E-01   15  26 1  0.29E-03*  0.40   1.66    QN   YES    0:01:15
      119   1   15    0  -230.58394515   -0.79E-05*  0.11E+00*  15  26 1  0.49E-03*  0.40   1.96    QN   YES    0:01:15
      120   1   15    0  -230.58395765   -0.13E-04* -0.79E-01   15  26 1  0.73E-03*  0.40   1.30    QN   YES    0:01:14
      121   1   15    0  -230.58397013   -0.12E-04*  0.84E-01   15  26 1  0.82E-03*  0.40   1.76    QN   YES    0:01:23
      122   1   15    0  -230.58399682   -0.27E-04*  0.72E-01   15  26 1  0.75E-03*  0.40   1.93    QN   YES    0:01:23
      123   1   15    0  -230.58404052   -0.44E-04* -0.44E-01   11  77 1  0.61E-03*  0.40   1.63    QN   YES    0:01:20
      124   1   15    0  -230.58407279   -0.32E-04* -0.43E-01   11  77 1  0.42E-03*  0.40   1.66    QN   YES    0:01:25
      125   1   15    0  -230.58409733   -0.25E-04* -0.40E-01   15  26 1 -0.42E-03*  0.40   1.80    QN   YES    0:01:29
      126   1   15    0  -230.58411991   -0.23E-04*  0.47E-01   15  26 1 -0.54E-03*  0.40   1.85    QN   YES    0:01:37
      127   1   15    0  -230.58414024   -0.20E-04*  0.30E-01   12  25 1 -0.44E-03*  0.40   1.93    QN   YES    0:01:38
      128   1   15    0  -230.58416201   -0.22E-04* -0.92E-01   14  25 1 -0.42E-03*  0.40   1.76    QN   YES    0:01:28
      129   1   16    0  -230.58418371   -0.22E-04* -0.57E-01   14  21 1 -0.45E-03*  0.40   1.42    QN   YES    0:01:22
