   This run of MOLCAS is using the pymolcas driver

                             OPE
                             OPE          NMOL  CASOP  ENMOLC A   SO
                 OPE        NMOLC        AS  OP EN  MO LC     AS  OP
                OPENM       OL CA        SO  PE NM  OL CA     SOP EN
                OP EN      MO   LC       AS  OP ENMOL  CASO   PENMOL
                OP  EN     MO   LC       AS  OP EN     MO     LC ASO
               OP   E  NMOL  C  AS       OP  EN MO     LC     AS  OP
               OP  E   NMO   LC AS        OPEN  MO     LCASOP EN   M
               O  PEN   MO  LCA  SO
            OPE   NMO   L   CAS    OP
        OPENMOL  CASOP     ENMOL   CASOPE
     OPENMOLCA   SOPENMOLCASOPEN   MOLCASOPE
    OPENMOLCAS   OP           EN   MOL    CAS
    OPENMOLCAS       OP  ENM        O     LCA
    OPENMOLCAS    OPEN  MOLCASO     P  E  NMO
    OPENMOLCAS     OP               E  N  MOL
    OPENMOLCA   SO           PENM   O  L  CAS    OPEN    MO    LCAS
    OPENMOLCA   SOP           ENM   O  L  CAS   OP  EN  MOLC  AS   O
    OPENMOLCA   SOPE           NM      O  LCA   S      OP  EN MO
    OPENMOLC                AS         O  PEN   M      OL  CA  SOPE
    OPENMO        LCASOPE  NMOL        C  ASO   P      ENMOLC     AS
    OPE     NMO      LCA  SO     P     E   NM   OL  CA SO  PE N   MO
          OPENMOLCA            SOPE   NMO        LCAS  O    P  ENMO
     OPENMOLCASOPENMOLCASOPENMOLCASOPENMOLCA
        OPENMOLCASOPENMOLCASOPENMOLCASOPE
            OPENMOLCASOPENMOLCASOPENM
               OPENMOLCASOPENMOLCA        version: 22.02
                   OPENMOLCASO
                       OPE                tag: 112-ge90b629

 OpenMolcas is free software; you can redistribute it and/or modify it
 under the terms of the GNU Lesser General Public License version 2.1.
 OpenMolcas is distributed in the hope that it will be useful, but it
 is provided "as is" and without any express or implied warranties.
 For more details see the full text of the license in the file
 LICENSE or in <http://www.gnu.org/licenses/>.

                 Copyright (C) The OpenMolcas Authors
           For the author list and the recommended citation,
                   consult the file CONTRIBUTORS.md

           *************************************************
           * pymolcas version py2.22                       *
           *   build 8f5156e7c298caa029894eefd30f00af      *
           *   (after the EMIL interpreter by V. Veryazov) *
           *************************************************

configuration info
------------------
Host name: d3070 (Linux)
C Compiler ID: Intel
C flags: -O2 -fpic -march=skylake-avx512 -std=gnu99 -gcc-sys -qopenmp
Fortran Compiler ID: Intel
Fortran flags: -O2 -fpic -march=skylake-avx512  -fpp -i8 -r8 -heap-arrays -qopenmp
Definitions: _MOLCAS_;_I8_;_LINUX_;_MOLCAS_MPP_;_SCALAPACK_;_GA_
Parallel: ON (GA=ON)


   --------------------------------------------------------------------------------------
  |
  |              Project: mr-C1
  |       Submitted from: /work/donglab/kaufold.b/Label-Tutorial
  |         Scratch area: /scratch/kaufold.b/OpenMolcas/29130792_0/mr-C1
  |      Save outputs to: /work/donglab/kaufold.b/Label-Tutorial/mr-C1
  |               Molcas: /shared/centos7/openmolcas/22.02-intel-cascadelake-wfa
  |
  | Scratch area is empty
  |
  |       MOLCAS_DRIVER = /shared/centos7/openmolcas/22.02-intel-cascadelake-wfa/pymolcas
  | MOLCAS_KEEP_WORKDIR = NO
  |      MOLCAS_MAXITER = 10000
  |       MOLCAS_MAXMEM = 51975
  |       MOLCAS_MOLDEN = ON
  | MOLCAS_NEW_DEFAULTS = NO
  |       MOLCAS_NPROCS = 1
  |         MOLCAS_SAVE = ORIG
  |       MOLCAS_SOURCE = /shared/centos7/openmolcas/22.02-intel-cascadelake-wfa
  |    MOLCAS_STRUCTURE = 0
  |      MOLCAS_TIMELIM = 42960
  |     MOLCAS_VALIDATE = YES
  |
   --------------------------------------------------------------------------------------


--- Start Module: gateway at Mon Jul 18 12:33:55 2022 ---

-- Input validation for gateway
lxml python module not found, no validation possible
--
 
()()()()()()()()()()()()()()()()()()()()()()()()()()()()()()()()()()()()()()()()()()()()()()()()()()

                                              &GATEWAY

                       only a single process is used, running in SERIAL mode
                       available to each process: 46 GB of memory, 16 threads
                                             pid: 15417
()()()()()()()()()()()()()()()()()()()()()()()()()()()()()()()()()()()()()()()()()()()()()()()()()()
 
 
 Title:
                                    Benzene MR with Symmetry                            
 
 
++    Symmetry information:
      ---------------------
 
                    Character Table for C1 
 
                             E  
                    a        1  x, y, xy, Rz, z, xz, Ry, yz, Rx, I
--
 
 
++    Basis set information:
      ----------------------
 
 
      Basis set label: H.AUG-CC-PVTZ.........
 
      Electronic valence basis set:
      ------------------
      Associated Effective Charge   1.000000 au
      Associated Actual Charge      1.000000 au
      Nuclear Model: Point charge
 
      Shell  nPrim  nBasis  Cartesian Spherical Contaminant
         s       6       4        X                  
         p       3       3        X                  
         d       2       2                 X         
 
 
      Basis set label: C.AUG-CC-PVTZ.........
 
      Electronic valence basis set:
      ------------------
      Associated Effective Charge   6.000000 au
      Associated Actual Charge      6.000000 au
      Nuclear Model: Point charge
 
      Shell  nPrim  nBasis  Cartesian Spherical Contaminant
         s      11       5        X                  
         p       6       4        X                  
         d       3       3                 X         
         f       2       2                 X         
 
 
      Basis set label: H.AUG-CC-PVTZ.........
 
      Electronic valence basis set:
      ------------------
      Associated Effective Charge   1.000000 au
      Associated Actual Charge      1.000000 au
      Nuclear Model: Point charge
 
      Shell  nPrim  nBasis  Cartesian Spherical Contaminant
         s       6       4        X                  
         p       3       3        X                  
         d       2       2                 X         
 
 
      Basis set label: C.AUG-CC-PVTZ.........
 
      Electronic valence basis set:
      ------------------
      Associated Effective Charge   6.000000 au
      Associated Actual Charge      6.000000 au
      Nuclear Model: Point charge
 
      Shell  nPrim  nBasis  Cartesian Spherical Contaminant
         s      11       5        X                  
         p       6       4        X                  
         d       3       3                 X         
         f       2       2                 X         
 
 
      Basis set label: H.AUG-CC-PVTZ.........
 
      Electronic valence basis set:
      ------------------
      Associated Effective Charge   1.000000 au
      Associated Actual Charge      1.000000 au
      Nuclear Model: Point charge
 
      Shell  nPrim  nBasis  Cartesian Spherical Contaminant
         s       6       4        X                  
         p       3       3        X                  
         d       2       2                 X         
 
 
      Basis set label: C.AUG-CC-PVTZ.........
 
      Electronic valence basis set:
      ------------------
      Associated Effective Charge   6.000000 au
      Associated Actual Charge      6.000000 au
      Nuclear Model: Point charge
 
      Shell  nPrim  nBasis  Cartesian Spherical Contaminant
         s      11       5        X                  
         p       6       4        X                  
         d       3       3                 X         
         f       2       2                 X         
 
 
      Basis set label: H.AUG-CC-PVTZ.........
 
      Electronic valence basis set:
      ------------------
      Associated Effective Charge   1.000000 au
      Associated Actual Charge      1.000000 au
      Nuclear Model: Point charge
 
      Shell  nPrim  nBasis  Cartesian Spherical Contaminant
         s       6       4        X                  
         p       3       3        X                  
         d       2       2                 X         
--
 
 
++    Molecular structure info:
      -------------------------
 
                    ************************************************ 
                    **** Cartesian Coordinates / Bohr, Angstrom **** 
                    ************************************************ 
 
     Center  Label                x              y              z                     x              y              z
        1      H1               0.000000       4.672658       0.000000              0.000000       2.472664       0.000000
        2      H2               4.047232       2.335660       0.000000              2.141703       1.235978       0.000000
        3      C3               0.000000       2.628293       0.000000              0.000000       1.390833       0.000000
        4      H4              -4.047232       2.335660       0.000000             -2.141703       1.235978       0.000000
        5      C5               2.276482       1.314007       0.000000              1.204663       0.695343       0.000000
        6      C6              -2.276482       1.314007       0.000000             -1.204663       0.695343       0.000000
        7      C7               2.276482      -1.314007       0.000000              1.204663      -0.695343       0.000000
        8      C8              -2.276482      -1.314007       0.000000             -1.204663      -0.695343       0.000000
        9      H9               4.047232      -2.335660       0.000000              2.141703      -1.235978       0.000000
       10      C10              0.000000      -2.628293       0.000000              0.000000      -1.390833       0.000000
       11      H11             -4.047232      -2.335660       0.000000             -2.141703      -1.235978       0.000000
       12      H12              0.000000      -4.672658       0.000000              0.000000      -2.472664       0.000000
 
                    *************************************** 
                    *    InterNuclear Distances / Bohr    * 
                    *************************************** 
 
               1 H1            2 H2            3 C3            4 H4            5 C5            6 C6    
    1 H1       0.000000
    2 H2       4.673505        0.000000
    3 C3       2.044365        4.057798        0.000000
    4 H4       4.673505        8.094465        4.057798        0.000000
    5 C5       4.057451        2.044341        2.628635        6.405712        0.000000
    6 C6       4.057451        6.405712        2.628635        2.044341        4.552965        0.000000
    7 C7       6.404883        4.056553        4.552373        7.301331        2.628014        5.256990
    8 C8       6.404883        7.301331        4.552373        4.056553        5.256990        2.628014
    9 H9       8.092997        4.671319        6.404757        9.345672        4.056553        7.301331
   10 C10      7.300951        6.404757        5.256586        6.404757        4.552373        4.552373
   11 H11      8.092997        9.345672        6.404757        4.671319        7.301331        4.056553
   12 H12      9.345316        8.092997        7.300951        8.092997        6.404883        6.404883
 
               7 C7            8 C8            9 H9           10 C10          11 H11          12 H12   
    7 C7       0.000000
    8 C8       4.552965        0.000000
    9 H9       2.044341        6.405712        0.000000
   10 C10      2.628635        2.628635        4.057798        0.000000
   11 H11      6.405712        2.044341        8.094465        4.057798        0.000000
   12 H12      4.057451        4.057451        4.673505        2.044365        4.673505        0.000000
 
                    ******************************************* 
                    *    InterNuclear Distances / Angstrom    * 
                    ******************************************* 
 
               1 H1            2 H2            3 C3            4 H4            5 C5            6 C6    
    1 H1       0.000000
    2 H2       2.473112        0.000000
    3 C3       1.081831        2.147294        0.000000
    4 H4       2.473112        4.283406        2.147294        0.000000
    5 C5       2.147111        1.081819        1.391014        3.389757        0.000000
    6 C6       2.147111        3.389757        1.391014        1.081819        2.409325        0.000000
    7 C7       3.389318        2.146635        2.409012        3.863698        1.390685        2.781879
    8 C8       3.389318        3.863698        2.409012        2.146635        2.781879        1.390685
    9 H9       4.282630        2.471956        3.389252        4.945517        2.146635        3.863698
   10 C10      3.863497        3.389252        2.781666        3.389252        2.409012        2.409012
   11 H11      4.282630        4.945517        3.389252        2.471956        3.863698        2.146635
   12 H12      4.945328        4.282630        3.863497        4.282630        3.389318        3.389318
 
               7 C7            8 C8            9 H9           10 C10          11 H11          12 H12   
    7 C7       0.000000
    8 C8       2.409325        0.000000
    9 H9       1.081819        3.389757        0.000000
   10 C10      1.391014        1.391014        2.147294        0.000000
   11 H11      3.389757        1.081819        4.283406        2.147294        0.000000
   12 H12      2.147111        2.147111        2.473112        1.081831        2.473112        0.000000
 
                    ************************************** 
                    *    Valence Bond Angles / Degree    * 
                    ************************************** 
                          Atom centers                 Phi
                      1 H1       3 C3       5 C5       120.00
                      1 H1       3 C3       6 C6       120.00
                      5 C5       3 C3       6 C6       120.00
                      2 H2       5 C5       3 C3       120.02
                      2 H2       5 C5       7 C7       119.98
                      3 C3       5 C5       7 C7       120.00
                      3 C3       6 C6       4 H4       120.02
                      3 C3       6 C6       8 C8       120.00
                      4 H4       6 C6       8 C8       119.98
                      5 C5       7 C7       9 H9       119.98
                      5 C5       7 C7      10 C10      120.00
                      9 H9       7 C7      10 C10      120.02
                      6 C6       8 C8      10 C10      120.00
                      6 C6       8 C8      11 H11      119.98
                     10 C10      8 C8      11 H11      120.02
                      7 C7      10 C10      8 C8       120.00
                      7 C7      10 C10     12 H12      120.00
                      8 C8      10 C10     12 H12      120.00
 
           ***************************************************************
           *              Valence Dihedral Angles / Degree               *
           ***************************************************************
                    Atom centers                       Phi1     Phi2     Theta 
           1 H1       3 C3       5 C5       2 H2        120.00   120.02     0.00
           1 H1       3 C3       5 C5       7 C7        120.00   120.00  -180.00
           6 C6       3 C3       5 C5       7 C7        120.00   120.00     0.00
           1 H1       3 C3       6 C6       4 H4        120.00   120.02     0.00
           1 H1       3 C3       6 C6       8 C8        120.00   120.00  -180.00
           5 C5       3 C3       6 C6       8 C8        120.00   120.00     0.00
           2 H2       5 C5       3 C3       6 C6        120.02   120.00  -180.00
           2 H2       5 C5       7 C7       9 H9        119.98   119.98     0.00
           2 H2       5 C5       7 C7      10 C10       119.98   120.00  -180.00
           3 C3       5 C5       7 C7       9 H9        120.00   119.98  -180.00
           3 C3       5 C5       7 C7      10 C10       120.00   120.00     0.00
           4 H4       6 C6       3 C3       5 C5        120.02   120.00  -180.00
           3 C3       6 C6       8 C8      10 C10       120.00   120.00     0.00
           3 C3       6 C6       8 C8      11 H11       120.00   119.98  -180.00
           4 H4       6 C6       8 C8      10 C10       119.98   120.00  -180.00
           4 H4       6 C6       8 C8      11 H11       119.98   119.98     0.00
           5 C5       7 C7      10 C10      8 C8        120.00   120.00     0.00
           5 C5       7 C7      10 C10     12 H12       120.00   120.00  -180.00
           9 H9       7 C7      10 C10     12 H12       120.02   120.00     0.00
           6 C6       8 C8      10 C10      7 C7        120.00   120.00     0.00
           6 C6       8 C8      10 C10     12 H12       120.00   120.00  -180.00
          11 H11      8 C8      10 C10     12 H12       120.02   120.00     0.00
           8 C8      10 C10      7 C7       9 H9        120.00   120.02  -180.00
           7 C7      10 C10      8 C8      11 H11       120.00   120.02  -180.00
--
 
 
            Nuclear Potential Energy            204.04227156 au
 
The total execution time is limited to 42960 seconds.
--- Stop Module: gateway at Mon Jul 18 12:33:55 2022 /rc=_RC_ALL_IS_WELL_ ---
*** files: xmldump
    saved to directory /work/donglab/kaufold.b/Label-Tutorial/mr-C1

--- Start Module: seward at Mon Jul 18 12:33:55 2022 ---

-- Input validation for seward
lxml python module not found, no validation possible
--
 
()()()()()()()()()()()()()()()()()()()()()()()()()()()()()()()()()()()()()()()()()()()()()()()()()()

                                              &SEWARD

                       only a single process is used, running in SERIAL mode
                       available to each process: 46 GB of memory, 16 threads
                                             pid: 15421
()()()()()()()()()()()()()()()()()()()()()()()()()()()()()()()()()()()()()()()()()()()()()()()()()()
 
               SEWARD will generate:
                  Multipole Moment integrals up to order  2
                  Kinetic Energy integrals
                  Nuclear Attraction integrals (point charge)
                  One-Electron Hamiltonian integrals
                  Velocity integrals
                  Orbital angular momentum around ( 0.0000  0.0000  0.0000 )
                  Velocity quadrupole around ( 0.0000  0.0000  0.0000 )
                  Two-Electron Repulsion integrals
 
 Title:
                                    Benzene MR with Symmetry                            
 
 
                   Integrals are discarded if absolute value <: 0.10E-13
                   Integral cutoff threshold is set to       <: 0.10E-15
 
            Nuclear Potential Energy            204.04227156 au
 
 
      Basis set specifications :
      Symmetry species         a  
      Basis functions          414
 
 
      Input file to MOLDEN was generated!
 
The total execution time is limited to 42960 seconds.
--- Stop Module: seward at Mon Jul 18 13:42:14 2022 /rc=_RC_ALL_IS_WELL_ ---
*** files: mr-C1.GssOrb mr-C1.guessorb.h5 mr-C1.guessorb.molden xmldump
    saved to directory /work/donglab/kaufold.b/Label-Tutorial/mr-C1
--- Module seward spent 1 hour 8 minutes 18 seconds ---

*** symbolic link created: INPORB -> mr-C1.GssOrb
--- Start Module: rasscf at Mon Jul 18 13:42:14 2022 ---

-- Input validation for rasscf
lxml python module not found, no validation possible
--
 
()()()()()()()()()()()()()()()()()()()()()()()()()()()()()()()()()()()()()()()()()()()()()()()()()()

                                              &RASSCF

                       only a single process is used, running in SERIAL mode
                       available to each process: 46 GB of memory, 16 threads
                                             pid: 22377
()()()()()()()()()()()()()()()()()()()()()()()()()()()()()()()()()()()()()()()()()()()()()()()()()()
 
 
      Header of the ONEINT file:
      --------------------------
      
      Integrals generated by Gateway/Seward, Mon Jul 18 12:33:55 2022
 
 
      OrdInt status: non-squared
 
 
      Cartesian coordinates in Angstrom:
      -----------------------------------------------------
      No.  Label        X            Y            Z        
      -----------------------------------------------------
       1   H1         0.00000000   2.47266405   0.00000000
       2   H2         2.14170318   1.23597787   0.00000000
       3   C3         0.00000000   1.39083283   0.00000000
       4   H4        -2.14170318   1.23597787   0.00000000
       5   C5         1.20466254   0.69534255   0.00000000
       6   C6        -1.20466254   0.69534255   0.00000000
       7   C7         1.20466254  -0.69534255   0.00000000
       8   C8        -1.20466254  -0.69534255   0.00000000
       9   H9         2.14170318  -1.23597787   0.00000000
      10   C10        0.00000000  -1.39083283   0.00000000
      11   H11       -2.14170318  -1.23597787   0.00000000
      12   H12        0.00000000  -2.47266405   0.00000000
      -----------------------------------------------------
      Nuclear repulsion energy =  204.04227156
 
++    Wave function specifications:
      -----------------------------
 
      Number of closed shell electrons          36
      Number of electrons in active shells       6
      Max number of holes in RAS1 space          0
      Max nr of electrons in RAS3 space          0
      Number of inactive orbitals               18
      Number of active orbitals                  6
      Number of secondary orbitals             390
      Spin quantum number                      0.0
      State symmetry                             1
--
 
++    Orbital specifications:
      -----------------------
 
      Symmetry species                           1
                                                 a
      Frozen orbitals                            0
      Inactive orbitals                         18
      Active orbitals                            6
      RAS1 orbitals                              0
      RAS2 orbitals                              6
      RAS3 orbitals                              0
      Secondary orbitals                       390
      Deleted orbitals                           0
      Number of basis functions                414
--
 
++    CI expansion specifications:
      ----------------------------
 
      Number of CSFs                           175
      Number of determinants                   210
      Number of root(s) required                 6
      Root chosen for geometry opt.              6
      CI roots used                              1     2     3     4     5     6
      weights                                0.167 0.167 0.167 0.167 0.167 0.167
      highest root included in the CI            6
      max. size of the explicit Hamiltonian    175
--
 
++    Optimization specifications:
      ----------------------------
 
      RASSCF algorithm: Conventional
      Maximum number of macro iterations       200
      Maximum number of SX iterations          100
      Threshold for RASSCF energy            0.100E-07
      Threshold for max MO rotation          0.100E+00
      Threshold for max BLB element          0.100E-03
      Level shift parameter                  0.500E+00
      Make Quasi-Newton update
--
 
      The MO-coefficients are taken from the file:
      /work/donglab/kaufold.b/Label-Tutorial/labeled-C1.ScfOrb                                                                                                                                                                                                        
      Title: RKS-DFT orbitals / B3LYP                                                      
 
      Total molecular charge    0.00
 
      ************************************************************************************************************************
      *                                                                                                                      *
      *                                            Wave function control section                                             *
      *                                                                                                                      *
      ************************************************************************************************************************
 
 
                                         RASSCF iterations: Energy and convergence statistics
                                         ----------------------------------------------------
 
      Iter CI   SX   CI       RASSCF       Energy    max ROT     max BLB   max BLB  Level Ln srch  Step   QN   Walltime
          iter iter root      energy       change     param      element    value   shift minimum  type update hh:mm:ss
 Nr of preliminary CI iterations:   1
        1   1   48    0  -230.55007717    0.00E+00   0.25E+00*   8 413 1 -0.88E-01*  0.42   0.00    SX    NO    0:02:38
        2   1    9    0  -230.59523498   -0.45E-01*  0.21E+00*  24  48 1  0.17E-01*  0.37   0.00    SX    NO    0:01:14
        3   1    9    0  -230.60471624   -0.95E-02* -0.13E+00*  24  48 1  0.11E-01*  0.37   0.00    SX    NO    0:01:13
        4   1    6    0  -230.60832149   -0.36E-02* -0.80E-01   24  48 1  0.70E-02*  0.37   0.00    SX    NO    0:01:12
        5   1    6    0  -230.60969585   -0.14E-02* -0.94E-01   24  48 1  0.40E-02*  0.37   2.48    LS   YES    0:01:12
        6   1    5    0  -230.61043643   -0.74E-03*  0.21E-01   22  43 1 -0.17E-02*  0.38   1.26    QN   YES    0:01:12
        7   1    5    0  -230.61050855   -0.72E-04*  0.53E-02   22  43 1 -0.87E-03*  0.38   1.38    QN   YES    0:01:13
        8   1    5    0  -230.61052801   -0.19E-04*  0.24E-02   22  43 1 -0.31E-03*  0.38   1.46    LS   YES    0:01:20
        9   1    5    0  -230.61053012   -0.21E-05* -0.51E-02   24  48 1 -0.29E-03*  0.38   1.00    QN   YES    0:01:20
       10   1    4    0  -230.61053265   -0.25E-05* -0.24E-02   21  48 1  0.93E-04   0.38   1.48    LS   YES    0:01:21
       11   1    4    0  -230.61053295   -0.30E-06* -0.20E-03   21  48 1  0.74E-04   0.38   1.01    QN   YES    0:01:18
       12   1    4    0  -230.61053304   -0.91E-07* -0.16E-03   22  30 1 -0.39E-04   0.38   1.81    LS   YES    0:01:18
       13   1    4    0  -230.61053306   -0.23E-07* -0.12E-03   22  30 1 -0.28E-04   0.38   1.00    QN   YES    0:01:16
       14   1    4    0  -230.61053307   -0.12E-07* -0.16E-03   22  30 1 -0.19E-04   0.38   1.57    QN   YES    0:01:19
       15   1    4    0  -230.61053308   -0.65E-08   0.94E-04   12  50 1  0.93E-05   0.38   1.46    QN   YES    0:01:19
      Convergence after 15 iterations
       16   1    4    0  -230.61053308   -0.18E-08   0.94E-04   12  50 1  0.48E-05   0.38   1.46    QN   YES    0:01:18
 
      ************************************************************************************************************************
                                                      Wave function printout:
                       occupation of active orbitals, and spin coupling of open shells (u,d: Spin up or down)
      ************************************************************************************************************************
 
      Note: transformation to natural orbitals
      has been made, which may change the order of the CSFs.
 
      printout of CI-coefficients larger than  0.05 for root  1
      energy=    -230.844706
      conf/sym  111111     Coeff  Weight
             1  222000  -0.94401 0.89115
            11  220200   0.14407 0.02076
            18  2udud0   0.10233 0.01047
            26  u2du0d  -0.10355 0.01072
            31  202020   0.14126 0.01995
            39  ud20ud  -0.10234 0.01047
            47  2uudd0  -0.14086 0.01984
 
      printout of CI-coefficients larger than  0.05 for root  2
      energy=    -230.665450
      conf/sym  111111     Coeff  Weight
             3  22u0d0  -0.63009 0.39701
             5  2u2d00   0.63635 0.40494
            15  2200ud  -0.12612 0.01591
            20  2udu0d  -0.20124 0.04050
            24  u2dud0   0.22821 0.05208
            33  2020ud   0.13314 0.01773
            35  ud2200   0.13865 0.01922
            37  ud2020  -0.14938 0.02231
            62  2u0d02   0.06233 0.00389
            79  20u0d2   0.06505 0.00423
            88  02u2d0  -0.07272 0.00529
           113  0u2d20  -0.07855 0.00617
 
      printout of CI-coefficients larger than  0.05 for root  3
      energy=    -230.554857
      conf/sym  111111     Coeff  Weight
             2  22ud00   0.67478 0.45532
             6  2u20d0   0.70154 0.49216
            14  220u0d  -0.05697 0.00325
            23  u2d200  -0.10026 0.01005
            25  u2d020   0.09234 0.00853
            36  ud2ud0   0.11252 0.01266
 
      printout of CI-coefficients larger than  0.05 for root  4
      energy=    -230.547095
      conf/sym  111111     Coeff  Weight
             4  22u00d  -0.36357 0.13218
             8  u22d00  -0.57758 0.33359
            11  220200   0.45511 0.20712
            13  220020  -0.13556 0.01838
            16  220002  -0.08506 0.00723
            18  2udud0  -0.34539 0.11929
            26  u2du0d   0.07993 0.00639
            29  202200  -0.19314 0.03730
            31  202020  -0.11061 0.01223
            34  202002   0.09275 0.00860
            39  ud20ud  -0.06800 0.00462
            41  022200  -0.10462 0.01095
            43  022020   0.11836 0.01401
            51  u2ud0d   0.08368 0.00700
            55  uu20dd  -0.10283 0.01057
            59  2u0dud   0.11914 0.01419
            65  u20d20  -0.10307 0.01062
            74  20u20d  -0.08743 0.00764
            80  udu2d0   0.12190 0.01486
            87  udu0d2   0.05082 0.00258
           115  0u2dud   0.07058 0.00498
 
      printout of CI-coefficients larger than  0.05 for root  5
      energy=    -230.546144
      conf/sym  111111     Coeff  Weight
             7  2u200d  -0.35343 0.12492
             9  u220d0  -0.57096 0.32599
            12  220ud0   0.06388 0.00408
            19  2ud020  -0.46255 0.21395
            22  2ud002   0.13446 0.01808
            27  u2d0ud  -0.05953 0.00354
            30  202ud0  -0.42074 0.17702
            38  ud2u0d  -0.05980 0.00358
            42  022ud0   0.17958 0.03225
            52  u2u0dd  -0.11272 0.01271
            54  uu2d0d  -0.11263 0.01269
            61  2u002d   0.07783 0.00606
            75  20udud   0.06922 0.00479
            76  20uudd  -0.10773 0.01161
            81  udud20   0.07226 0.00522
            92  02uudd   0.06941 0.00482
            97  uudd20  -0.11301 0.01277
           102  uudd02   0.05061 0.00256
           104  u022d0   0.09163 0.00840
           144  0ud220   0.05039 0.00254
 
      printout of CI-coefficients larger than  0.05 for root  6
      energy=    -230.504948
      conf/sym  111111     Coeff  Weight
             3  22u0d0  -0.66943 0.44813
             5  2u2d00  -0.66595 0.44348
            15  2200ud  -0.11179 0.01250
            20  2udu0d   0.07135 0.00509
            35  ud2200  -0.13187 0.01739
            37  ud2020  -0.09274 0.00860
            48  2uud0d   0.07325 0.00537
            50  u2udd0   0.06447 0.00416
            57  2u0d20  -0.13591 0.01847
            72  20u2d0  -0.13207 0.01744
            85  udu02d  -0.05031 0.00253
           107  u02dud  -0.05052 0.00255
 
      Natural orbitals and occupation numbers for root  1
      sym 1:   1.965151   1.906941   1.905221   0.095234   0.094080   0.033373
 
      Natural orbitals and occupation numbers for root  2
      sym 1:   1.871566   1.447280   1.450573   0.567272   0.561376   0.101933
 
      Natural orbitals and occupation numbers for root  3
      sym 1:   1.953953   1.476070   1.505348   0.507294   0.539042   0.018294
 
      Natural orbitals and occupation numbers for root  4
      sym 1:   1.557078   1.676748   1.186106   1.044250   0.302978   0.232841
 
      Natural orbitals and occupation numbers for root  5
      sym 1:   1.536339   1.184178   1.677658   0.291870   1.076623   0.233333
 
      Natural orbitals and occupation numbers for root  6
      sym 1:   1.962183   1.448610   1.447606   0.551946   0.556843   0.032811
 
      ************************************************************************************************************************
      *                                                                                                                      *
      *                                                    Final results                                                     *
      *                                                                                                                      *
      ************************************************************************************************************************
 
 
++    Wave function specifications:
      -----------------------------
 
      Number of closed shell electrons          36
      Number of electrons in active shells       6
      Max number of holes in RAS1 space          0
      Max nr of electrons in RAS3 space          0
      Number of inactive orbitals               18
      Number of active orbitals                  6
      Number of secondary orbitals             390
      Spin quantum number                      0.0
      State symmetry                             1
--
 
++    Orbital specifications:
      -----------------------
 
      Symmetry species                           1
                                                 a
      Frozen orbitals                            0
      Inactive orbitals                         18
      Active orbitals                            6
      RAS1 orbitals                              0
      RAS2 orbitals                              6
      RAS3 orbitals                              0
      Secondary orbitals                       390
      Deleted orbitals                           0
      Number of basis functions                414
--
 
++    CI expansion specifications:
      ----------------------------
 
      Number of CSFs                           175
      Number of determinants                   210
      Number of root(s) required                 6
      CI roots used                              1     2     3     4     5     6
      weights                                0.167 0.167 0.167 0.167 0.167 0.167
      highest root included in the CI            6
      Root passed to geometry opt.               6
--
 
++    Final optimization conditions:
      ------------------------------
 
      Average CI energy                            -230.61053308
      RASSCF energy for state  6                   -230.50494764
      Super-CI energy                                -0.00000000
      RASSCF energy change                           -0.00000000
      Max change in MO coefficients               0.711E-04
      Max non-diagonal density matrix element     0.942E-04
      Maximum BLB matrix element                  0.482E-05
      (orbital pair  12,  50 in symmetry   1)
      Norm of electronic gradient            0.621E-01
--
 
 
      Final state energy(ies):
      ------------------------
 
::    RASSCF root number  1 Total energy:   -230.84470560
::    RASSCF root number  2 Total energy:   -230.66545006
::    RASSCF root number  3 Total energy:   -230.55485662
::    RASSCF root number  4 Total energy:   -230.54709502
::    RASSCF root number  5 Total energy:   -230.54614355
::    RASSCF root number  6 Total energy:   -230.50494764
 
++    Molecular orbitals:
      -------------------
 
      Pseudonatural active orbitals and approximate occupation numbers
 
 
      MOLECULAR ORBITALS FOR SYMMETRY SPECIES 1: a  
 
      INDEX  ENERGY  OCCUPATION COEFFICIENTS ...
          1  -11.2280    2.0000                                                                                                           
                47 C3     1s     ( 0.2565) 116 C5     1s     ( 0.4665) 162 C6     1s     ( 0.4665) 208 C7     1s     ( 0.4665)
               254 C8     1s     ( 0.4665) 323 C10    1s     ( 0.2565)
          2  -11.2277    2.0000                                                                                                           
               116 C5     1s     (-0.5005) 162 C6     1s     ( 0.5005) 208 C7     1s     (-0.5005) 254 C8     1s     ( 0.5005)
      
          3  -11.2271    2.0000                                                                                                           
                47 C3     1s     (-0.4055) 116 C5     1s     (-0.4103) 162 C6     1s     (-0.4103) 208 C7     1s     ( 0.4103)
               254 C8     1s     ( 0.4103) 323 C10    1s     ( 0.4055)
          4  -11.2265    2.0000                                                                                                           
               116 C5     1s     ( 0.4999) 162 C6     1s     (-0.4999) 208 C7     1s     (-0.4999) 254 C8     1s     ( 0.4999)
      
          5  -11.2256    2.0000                                                                                                           
                47 C3     1s     (-0.6591) 116 C5     1s     ( 0.1809) 162 C6     1s     ( 0.1809) 208 C7     1s     ( 0.1809)
               254 C8     1s     ( 0.1809) 323 C10    1s     (-0.6591)
          6  -11.2253    2.0000                                                                                                           
                47 C3     1s     (-0.5802) 116 C5     1s     ( 0.2868) 162 C6     1s     ( 0.2868) 208 C7     1s     (-0.2868)
               254 C8     1s     (-0.2868) 323 C10    1s     ( 0.5802)
          7   -1.1516    2.0000                                                                                                           
                48 C3     2s     ( 0.3653) 117 C5     2s     ( 0.3660) 163 C6     2s     ( 0.3660) 209 C7     2s     ( 0.3660)
               255 C8     2s     ( 0.3660) 324 C10    2s     ( 0.3653)
          8   -1.0137    2.0000                                                                                                           
                24 H2     1s     ( 0.1642)  26 H2     *s     (-0.1314)  52 C3     2px    ( 0.1749)  93 H4     1s     (-0.1642)
                95 H4     *s     ( 0.1314) 117 C5     2s     ( 0.4521) 163 C6     2s     (-0.4521) 209 C7     2s     ( 0.4521)
               255 C8     2s     (-0.4521) 300 H9     1s     ( 0.1642) 302 H9     *s     (-0.1314) 328 C10    2px    ( 0.1749)
               369 H11    1s     (-0.1642) 371 H11    *s     ( 0.1314)
          9   -1.0132    2.0000                                                                                                           
                 1 H1     1s     (-0.1896)   3 H1     *s     ( 0.1511)  48 C3     2s     (-0.5218)  50 C3     *s     ( 0.1021)
               117 C5     2s     (-0.2611) 125 C5     2py    (-0.1195) 163 C6     2s     (-0.2611) 171 C6     2py    (-0.1195)
               209 C7     2s     ( 0.2611) 217 C7     2py    (-0.1195) 255 C8     2s     ( 0.2611) 263 C8     2py    (-0.1195)
               324 C10    2s     ( 0.5218) 326 C10    *s     (-0.1021) 392 H12    1s     ( 0.1896) 394 H12    *s     (-0.1511)
      
         10   -0.8236    2.0000                                                                                                           
                 1 H1     1s     (-0.2810)   3 H1     *s     ( 0.1327)  24 H2     1s     ( 0.1409)  48 C3     2s     (-0.4202)
                93 H4     1s     ( 0.1409) 117 C5     2s     ( 0.2097) 121 C5     2px    ( 0.1769) 125 C5     2py    (-0.2159)
               163 C6     2s     ( 0.2097) 167 C6     2px    (-0.1769) 171 C6     2py    (-0.2159) 209 C7     2s     ( 0.2097)
               213 C7     2px    ( 0.1769) 217 C7     2py    ( 0.2159) 255 C8     2s     ( 0.2097) 259 C8     2px    (-0.1769)
               263 C8     2py    ( 0.2159) 300 H9     1s     ( 0.1409) 324 C10    2s     (-0.4202) 369 H11    1s     ( 0.1409)
               392 H12    1s     (-0.2810) 394 H12    *s     ( 0.1327)
         11   -0.8235    2.0000                                                                                                           
                24 H2     1s     (-0.2438)  26 H2     *s     ( 0.1153)  52 C3     2px    (-0.3174)  93 H4     1s     ( 0.2438)
                95 H4     *s     (-0.1153) 117 C5     2s     (-0.3638) 125 C5     2py    (-0.1765) 163 C6     2s     ( 0.3638)
               171 C6     2py    ( 0.1765) 209 C7     2s     ( 0.3638) 217 C7     2py    (-0.1765) 255 C8     2s     (-0.3638)
               263 C8     2py    ( 0.1765) 300 H9     1s     ( 0.2438) 302 H9     *s     (-0.1153) 328 C10    2px    ( 0.3174)
               369 H11    1s     (-0.2438) 371 H11    *s     ( 0.1153)
         12   -0.7099    2.0000                                                                                                           
                 1 H1     1s     ( 0.2828)   3 H1     *s     (-0.1162)  24 H2     1s     ( 0.2828)  26 H2     *s     (-0.1167)
                56 C3     2py    ( 0.2929)  93 H4     1s     ( 0.2828)  95 H4     *s     (-0.1167) 121 C5     2px    ( 0.2538)
               125 C5     2py    ( 0.1471) 167 C6     2px    (-0.2538) 171 C6     2py    ( 0.1471) 213 C7     2px    ( 0.2538)
               217 C7     2py    (-0.1471) 259 C8     2px    (-0.2538) 263 C8     2py    (-0.1471) 300 H9     1s     ( 0.2828)
               302 H9     *s     (-0.1167) 332 C10    2py    (-0.2929) 369 H11    1s     ( 0.2828) 371 H11    *s     (-0.1167)
               392 H12    1s     ( 0.2828) 394 H12    *s     (-0.1162)
         13   -0.6400    2.0000                                                                                                           
                 1 H1     1s     (-0.3453)   3 H1     *s     ( 0.1698)  24 H2     1s     ( 0.3470)  26 H2     *s     (-0.1706)
                48 C3     2s     (-0.2441)  50 C3     *s     (-0.2415)  51 C3     *s     (-0.2554)  56 C3     2py    (-0.1949)
                93 H4     1s     ( 0.3470)  95 H4     *s     (-0.1706) 117 C5     2s     ( 0.2437) 119 C5     *s     ( 0.2424)
               120 C5     *s     ( 0.2554) 121 C5     2px    ( 0.1708) 163 C6     2s     ( 0.2437) 165 C6     *s     ( 0.2424)
               166 C6     *s     ( 0.2554) 167 C6     2px    (-0.1708) 209 C7     2s     (-0.2437) 211 C7     *s     (-0.2424)
               212 C7     *s     (-0.2554) 213 C7     2px    (-0.1708) 255 C8     2s     (-0.2437) 257 C8     *s     (-0.2424)
               258 C8     *s     (-0.2554) 259 C8     2px    ( 0.1708) 300 H9     1s     (-0.3470) 302 H9     *s     ( 0.1706)
               324 C10    2s     ( 0.2441) 326 C10    *s     ( 0.2415) 327 C10    *s     ( 0.2554) 332 C10    2py    (-0.1949)
               369 H11    1s     (-0.3470) 371 H11    *s     ( 0.1706) 392 H12    1s     ( 0.3453) 394 H12    *s     (-0.1698)
      
         14   -0.6193    2.0000                                                                                                           
                52 C3     2px    (-0.4230) 121 C5     2px    ( 0.2117) 125 C5     2py    (-0.3667) 167 C6     2px    ( 0.2117)
               171 C6     2py    ( 0.3667) 213 C7     2px    ( 0.2117) 217 C7     2py    ( 0.3667) 259 C8     2px    ( 0.2117)
               263 C8     2py    (-0.3667) 328 C10    2px    (-0.4230)
         15   -0.5878    2.0000                                                                                                           
                24 H2     1s     ( 0.3612)  26 H2     *s     (-0.1223)  52 C3     2px    (-0.1308)  93 H4     1s     (-0.3612)
                95 H4     *s     ( 0.1223) 119 C5     *s     ( 0.1326) 121 C5     2px    ( 0.3036) 125 C5     2py    ( 0.2508)
               165 C6     *s     (-0.1326) 167 C6     2px    ( 0.3036) 171 C6     2py    (-0.2508) 211 C7     *s     ( 0.1326)
               213 C7     2px    ( 0.3036) 217 C7     2py    (-0.2508) 257 C8     *s     (-0.1326) 259 C8     2px    ( 0.3036)
               263 C8     2py    ( 0.2508) 300 H9     1s     ( 0.3612) 302 H9     *s     (-0.1223) 328 C10    2px    (-0.1308)
               369 H11    1s     (-0.3612) 371 H11    *s     ( 0.1223)
         16   -0.5874    2.0000                                                                                                           
                 1 H1     1s     (-0.4181)   3 H1     *s     ( 0.1418)  24 H2     1s     (-0.2076)  50 C3     *s     (-0.1529)
                56 C3     2py    (-0.4486)  93 H4     1s     (-0.2076) 121 C5     2px    (-0.2504) 167 C6     2px    ( 0.2504)
               213 C7     2px    ( 0.2504) 259 C8     2px    (-0.2504) 300 H9     1s     ( 0.2076) 326 C10    *s     ( 0.1529)
               332 C10    2py    (-0.4486) 369 H11    1s     ( 0.2076) 392 H12    1s     ( 0.4181) 394 H12    *s     (-0.1418)
      
         17   -0.4928    2.0000                                                                                                           
                24 H2     1s     ( 0.3578)  26 H2     *s     (-0.1428)  52 C3     2px    (-0.3942)  93 H4     1s     (-0.3578)
                95 H4     *s     ( 0.1428) 119 C5     *s     ( 0.1705) 121 C5     2px    ( 0.3555) 165 C6     *s     (-0.1705)
               167 C6     2px    ( 0.3555) 211 C7     *s     (-0.1705) 213 C7     2px    (-0.3555) 257 C8     *s     ( 0.1705)
               259 C8     2px    (-0.3555) 300 H9     1s     (-0.3578) 302 H9     *s     ( 0.1428) 328 C10    2px    ( 0.3942)
               369 H11    1s     ( 0.3578) 371 H11    *s     (-0.1428)
         18   -0.4928    2.0000                                                                                                           
                 1 H1     1s     (-0.4134)   3 H1     *s     ( 0.1652)  24 H2     1s     ( 0.2065)  50 C3     *s     (-0.1973)
                56 C3     2py    (-0.3425)  93 H4     1s     ( 0.2065) 125 C5     2py    ( 0.3813) 171 C6     2py    ( 0.3813)
               217 C7     2py    (-0.3813) 263 C8     2py    (-0.3813) 300 H9     1s     ( 0.2065) 326 C10    *s     (-0.1973)
               332 C10    2py    ( 0.3425) 369 H11    1s     ( 0.2065) 392 H12    1s     (-0.4134) 394 H12    *s     ( 0.1652)
      
         19    0.0000    1.7983                                                                                                           
                60 C3     2pz    ( 0.3099) 129 C5     2pz    ( 0.3268) 175 C6     2pz    ( 0.3268) 221 C7     2pz    ( 0.3268)
               267 C8     2pz    ( 0.3268) 336 C10    2pz    ( 0.3099)
         20    0.0000    1.5233                                                                                                           
               129 C5     2pz    (-0.4228) 175 C6     2pz    ( 0.4228) 221 C7     2pz    (-0.4228) 267 C8     2pz    ( 0.4228)
      
         21    0.0000    1.5249                                                                                                           
                60 C3     2pz    (-0.4966) 129 C5     2pz    (-0.2371) 175 C6     2pz    (-0.2371) 221 C7     2pz    ( 0.2371)
               267 C8     2pz    ( 0.2371) 336 C10    2pz    ( 0.4966)
         22    0.0000    0.5191                                                                                                           
                60 C3     2pz    (-0.5632)  62 C3     *pz    (-0.1197)  63 C3     *pz    (-0.1566) 129 C5     2pz    ( 0.2600)
               175 C6     2pz    ( 0.2600) 221 C7     2pz    ( 0.2600) 267 C8     2pz    ( 0.2600) 336 C10    2pz    (-0.5632)
               338 C10    *pz    (-0.1197) 339 C10    *pz    (-0.1566)
         23    0.0000    0.5218                                                                                                           
               129 C5     2pz    (-0.4720) 131 C5     *pz    (-0.1080) 132 C5     *pz    (-0.1477) 175 C6     2pz    ( 0.4720)
               177 C6     *pz    ( 0.1080) 178 C6     *pz    ( 0.1477) 221 C7     2pz    ( 0.4720) 223 C7     *pz    ( 0.1080)
               224 C7     *pz    ( 0.1477) 267 C8     2pz    (-0.4720) 269 C8     *pz    (-0.1080) 270 C8     *pz    (-0.1477)
      
         24    0.0000    0.1126                                                                                                           
                60 C3     2pz    (-0.4952)  62 C3     *pz    (-0.2794)  63 C3     *pz    (-0.1292) 129 C5     2pz    ( 0.4984)
               131 C5     *pz    ( 0.2805) 132 C5     *pz    ( 0.1324) 175 C6     2pz    ( 0.4984) 177 C6     *pz    ( 0.2805)
               178 C6     *pz    ( 0.1324) 221 C7     2pz    (-0.4984) 223 C7     *pz    (-0.2805) 224 C7     *pz    (-0.1324)
               267 C8     2pz    (-0.4984) 269 C8     *pz    (-0.2805) 270 C8     *pz    (-0.1324) 336 C10    2pz    ( 0.4952)
               338 C10    *pz    ( 0.2794) 339 C10    *pz    ( 0.1292)
         25    0.0300    0.0000                                                                                                           
                 2 H1     *s     ( 0.2384)   3 H1     *s     ( 1.5422)   4 H1     *s     ( 0.9568)  10 H1     *py    (-0.2869)
                25 H2     *s     ( 0.2387)  26 H2     *s     ( 1.5465)  27 H2     *s     ( 0.9510)  30 H2     *px    (-0.2491)
                33 H2     *py    (-0.1441)  50 C3     *s     (-0.8390)  51 C3     *s     (-1.4592)  58 C3     *py    (-0.6258)
                59 C3     *py    (-0.3485)  72 C3     *d0    ( 0.1295)  78 C3     *d2+   ( 0.1354)  94 H4     *s     ( 0.2387)
                95 H4     *s     ( 1.5465)  96 H4     *s     ( 0.9510)  99 H4     *px    ( 0.2491) 102 H4     *py    (-0.1441)
               119 C5     *s     (-0.8428) 120 C5     *s     (-1.4673) 123 C5     *px    (-0.5416) 124 C5     *px    (-0.2971)
               127 C5     *py    (-0.3122) 128 C5     *py    (-0.1711) 135 C5     *d2-   (-0.1185) 141 C5     *d0    ( 0.1295)
               165 C6     *s     (-0.8428) 166 C6     *s     (-1.4673) 169 C6     *px    ( 0.5416) 170 C6     *px    ( 0.2971)
               173 C6     *py    (-0.3122) 174 C6     *py    (-0.1711) 181 C6     *d2-   ( 0.1185) 187 C6     *d0    ( 0.1295)
               211 C7     *s     (-0.8428) 212 C7     *s     (-1.4673) 215 C7     *px    (-0.5416) 216 C7     *px    (-0.2971)
               219 C7     *py    ( 0.3122) 220 C7     *py    ( 0.1711) 227 C7     *d2-   ( 0.1185) 233 C7     *d0    ( 0.1295)
               257 C8     *s     (-0.8428) 258 C8     *s     (-1.4673) 261 C8     *px    ( 0.5416) 262 C8     *px    ( 0.2971)
               265 C8     *py    ( 0.3122) 266 C8     *py    ( 0.1711) 273 C8     *d2-   (-0.1185) 279 C8     *d0    ( 0.1295)
               301 H9     *s     ( 0.2387) 302 H9     *s     ( 1.5465) 303 H9     *s     ( 0.9510) 306 H9     *px    (-0.2491)
               309 H9     *py    ( 0.1441) 326 C10    *s     (-0.8390) 327 C10    *s     (-1.4592) 334 C10    *py    ( 0.6258)
               335 C10    *py    ( 0.3485) 348 C10    *d0    ( 0.1295) 354 C10    *d2+   ( 0.1354) 370 H11    *s     ( 0.2387)
               371 H11    *s     ( 1.5465) 372 H11    *s     ( 0.9510) 375 H11    *px    ( 0.2491) 378 H11    *py    ( 0.1441)
               393 H12    *s     ( 0.2384) 394 H12    *s     ( 1.5422) 395 H12    *s     ( 0.9568) 401 H12    *py    ( 0.2869)
      
         26    0.0353    0.0000                                                                                                           
                 3 H1     *s     ( 0.4869)   4 H1     *s     (-3.4902)  10 H1     *py    (-0.1491)  26 H2     *s     ( 0.2343)
                27 H2     *s     (-1.7405)  33 H2     *py    (-0.1627)  50 C3     *s     (-0.4194)  51 C3     *s     (-6.7307)
                58 C3     *py    ( 0.1364)  59 C3     *py    ( 1.8110)  72 C3     *d0    ( 0.2172)  95 H4     *s     ( 0.2343)
                96 H4     *s     (-1.7405) 102 H4     *py    (-0.1627) 119 C5     *s     (-0.2111) 120 C5     *s     (-3.3524)
               123 C5     *px    (-0.2486) 124 C5     *px    (-0.7759) 127 C5     *py    ( 0.5685) 128 C5     *py    ( 3.1447)
               141 C5     *d0    ( 0.1082) 165 C6     *s     (-0.2111) 166 C6     *s     (-3.3524) 169 C6     *px    ( 0.2486)
               170 C6     *px    ( 0.7759) 173 C6     *py    ( 0.5685) 174 C6     *py    ( 3.1447) 187 C6     *d0    ( 0.1082)
               211 C7     *s     ( 0.2111) 212 C7     *s     ( 3.3524) 215 C7     *px    ( 0.2486) 216 C7     *px    ( 0.7759)
               219 C7     *py    ( 0.5685) 220 C7     *py    ( 3.1447) 233 C7     *d0    (-0.1082) 257 C8     *s     ( 0.2111)
               258 C8     *s     ( 3.3524) 261 C8     *px    (-0.2486) 262 C8     *px    (-0.7759) 265 C8     *py    ( 0.5685)
               266 C8     *py    ( 3.1447) 279 C8     *d0    (-0.1082) 302 H9     *s     (-0.2343) 303 H9     *s     ( 1.7405)
               309 H9     *py    (-0.1627) 326 C10    *s     ( 0.4194) 327 C10    *s     ( 6.7307) 334 C10    *py    ( 0.1364)
               335 C10    *py    ( 1.8110) 348 C10    *d0    (-0.2172) 371 H11    *s     (-0.2343) 372 H11    *s     ( 1.7405)
               378 H11    *py    (-0.1627) 394 H12    *s     (-0.4869) 395 H12    *s     ( 3.4902) 401 H12    *py    (-0.1491)
      
         27    0.0353    0.0000                                                                                                           
                 7 H1     *px    (-0.1682)  26 H2     *s     ( 0.4168)  27 H2     *s     (-3.0194)  30 H2     *px    (-0.1533)
                54 C3     *px    ( 0.7114)  55 C3     *px    ( 3.5930)  95 H4     *s     (-0.4168)  96 H4     *s     ( 3.0194)
                99 H4     *px    (-0.1533) 119 C5     *s     (-0.3640) 120 C5     *s     (-5.8216) 123 C5     *px    ( 0.2804)
               124 C5     *px    ( 2.2543) 127 C5     *py    (-0.2489) 128 C5     *py    (-0.7741) 141 C5     *d0    ( 0.1878)
               165 C6     *s     ( 0.3640) 166 C6     *s     ( 5.8216) 169 C6     *px    ( 0.2804) 170 C6     *px    ( 2.2543)
               173 C6     *py    ( 0.2489) 174 C6     *py    ( 0.7741) 187 C6     *d0    (-0.1878) 211 C7     *s     (-0.3640)
               212 C7     *s     (-5.8216) 215 C7     *px    ( 0.2804) 216 C7     *px    ( 2.2543) 219 C7     *py    ( 0.2489)
               220 C7     *py    ( 0.7741) 233 C7     *d0    ( 0.1878) 257 C8     *s     ( 0.3640) 258 C8     *s     ( 5.8216)
               261 C8     *px    ( 0.2804) 262 C8     *px    ( 2.2543) 265 C8     *py    (-0.2489) 266 C8     *py    (-0.7741)
               279 C8     *d0    (-0.1878) 302 H9     *s     ( 0.4168) 303 H9     *s     (-3.0194) 306 H9     *px    (-0.1533)
               330 C10    *px    ( 0.7114) 331 C10    *px    ( 3.5930) 371 H11    *s     (-0.4168) 372 H11    *s     ( 3.0194)
               375 H11    *px    (-0.1533) 398 H12    *px    (-0.1682)
         28    0.0486    0.0000                                                                                                           
                 2 H1     *s     (-0.2723)   3 H1     *s     (-3.6764)   4 H1     *s     ( 8.1865)   9 H1     *py    ( 0.1114)
                10 H1     *py    ( 0.9259)  25 H2     *s     ( 0.1361)  26 H2     *s     ( 1.8376)  27 H2     *s     (-4.0940)
                30 H2     *px    (-0.4646)  33 H2     *py    (-0.1212)  50 C3     *s     ( 0.9254)  51 C3     *s     (17.3714)
                58 C3     *py    ( 0.3030)  59 C3     *py    (-8.1386)  72 C3     *d0    (-0.2148)  77 C3     *d2+   (-0.1267)
                78 C3     *d2+   (-1.1494)  94 H4     *s     ( 0.1361)  95 H4     *s     ( 1.8376)  96 H4     *s     (-4.0940)
                99 H4     *px    ( 0.4646) 102 H4     *py    (-0.1212) 119 C5     *s     (-0.4626) 120 C5     *s     (-8.6847)
               123 C5     *px    (-0.4434) 124 C5     *px    ( 3.7563) 127 C5     *py    ( 0.4655) 128 C5     *py    ( 1.6338)
               135 C5     *d2-   (-0.5137) 141 C5     *d0    ( 0.1074) 147 C5     *d2+   (-0.2595) 165 C6     *s     (-0.4626)
               166 C6     *s     (-8.6846) 169 C6     *px    ( 0.4434) 170 C6     *px    (-3.7563) 173 C6     *py    ( 0.4655)
               174 C6     *py    ( 1.6338) 181 C6     *d2-   ( 0.5137) 187 C6     *d0    ( 0.1074) 193 C6     *d2+   (-0.2595)
               211 C7     *s     (-0.4626) 212 C7     *s     (-8.6846) 215 C7     *px    (-0.4434) 216 C7     *px    ( 3.7563)
               219 C7     *py    (-0.4655) 220 C7     *py    (-1.6338) 227 C7     *d2-   ( 0.5137) 233 C7     *d0    ( 0.1074)
               239 C7     *d2+   (-0.2595) 257 C8     *s     (-0.4626) 258 C8     *s     (-8.6847) 261 C8     *px    ( 0.4434)
               262 C8     *px    (-3.7563) 265 C8     *py    (-0.4655) 266 C8     *py    (-1.6338) 273 C8     *d2-   (-0.5137)
               279 C8     *d0    ( 0.1074) 285 C8     *d2+   (-0.2595) 301 H9     *s     ( 0.1361) 302 H9     *s     ( 1.8376)
               303 H9     *s     (-4.0940) 306 H9     *px    (-0.4646) 309 H9     *py    ( 0.1212) 326 C10    *s     ( 0.9254)
               327 C10    *s     (17.3714) 334 C10    *py    (-0.3030) 335 C10    *py    ( 8.1386) 348 C10    *d0    (-0.2148)
               353 C10    *d2+   (-0.1267) 354 C10    *d2+   (-1.1494) 370 H11    *s     ( 0.1361) 371 H11    *s     ( 1.8376)
               372 H11    *s     (-4.0940) 375 H11    *px    ( 0.4646) 378 H11    *py    ( 0.1212) 393 H12    *s     (-0.2723)
               394 H12    *s     (-3.6764) 395 H12    *s     ( 8.1865) 400 H12    *py    (-0.1114) 401 H12    *py    (-0.9259)
      
         29    0.0486    0.0000                                                                                                           
                 7 H1     *px    ( 0.1466)  25 H2     *s     (-0.2357)  26 H2     *s     (-3.1863)  27 H2     *s     ( 7.0912)
                30 H2     *px    ( 0.6588)  33 H2     *py    ( 0.4641)  54 C3     *px    ( 0.7273)  55 C3     *px    (-0.5300)
                94 H4     *s     ( 0.2357)  95 H4     *s     ( 3.1863)  96 H4     *s     (-7.0912)  99 H4     *px    ( 0.6588)
               102 H4     *py    (-0.4641) 119 C5     *s     ( 0.8018) 120 C5     *s     (15.0319) 124 C5     *px    (-5.9721)
               127 C5     *py    ( 0.4391) 128 C5     *py    (-3.7545) 135 C5     *d2-   ( 0.8557) 141 C5     *d0    (-0.1855)
               147 C5     *d2+   ( 0.5127) 165 C6     *s     (-0.8018) 166 C6     *s     (*******) 170 C6     *px    (-5.9721)
               173 C6     *py    (-0.4391) 174 C6     *py    ( 3.7545) 181 C6     *d2-   ( 0.8557) 187 C6     *d0    ( 0.1855)
               193 C6     *d2+   (-0.5127) 211 C7     *s     (-0.8018) 212 C7     *s     (*******) 216 C7     *px    ( 5.9721)
               219 C7     *py    ( 0.4391) 220 C7     *py    (-3.7545) 227 C7     *d2-   ( 0.8557) 233 C7     *d0    ( 0.1855)
               239 C7     *d2+   (-0.5127) 257 C8     *s     ( 0.8018) 258 C8     *s     (15.0319) 262 C8     *px    ( 5.9721)
               265 C8     *py    (-0.4391) 266 C8     *py    ( 3.7545) 273 C8     *d2-   ( 0.8557) 279 C8     *d0    (-0.1855)
               285 C8     *d2+   ( 0.5127) 301 H9     *s     ( 0.2357) 302 H9     *s     ( 3.1863) 303 H9     *s     (-7.0912)
               306 H9     *px    (-0.6588) 309 H9     *py    ( 0.4641) 330 C10    *px    (-0.7273) 331 C10    *px    ( 0.5300)
               370 H11    *s     (-0.2357) 371 H11    *s     (-3.1863) 372 H11    *s     ( 7.0912) 375 H11    *px    (-0.6588)
               378 H11    *py    (-0.4641) 398 H12    *px    (-0.1466)
         30    0.0649    0.0000                                                                                                           
                 2 H1     *s     ( 0.4361)   3 H1     *s     ( 8.2261)   4 H1     *s     (*******)  10 H1     *py    (-1.6086)
                25 H2     *s     (-0.4361)  26 H2     *s     (-8.2264)  27 H2     *s     (12.8651)  30 H2     *px    ( 1.3937)
                33 H2     *py    ( 0.8040)  50 C3     *s     (-1.5736)  51 C3     *s     (*******)  58 C3     *py    (-2.2080)
                59 C3     *py    (15.1449)  72 C3     *d0    ( 0.5570)  78 C3     *d2+   ( 1.8285)  80 C3     *f3-   ( 0.1028)
                94 H4     *s     (-0.4361)  95 H4     *s     (-8.2264)  96 H4     *s     (12.8651)  99 H4     *px    (-1.3937)
               102 H4     *py    ( 0.8040) 119 C5     *s     ( 1.5766) 120 C5     *s     (48.7223) 123 C5     *px    ( 1.9130)
               124 C5     *px    (*******) 127 C5     *py    ( 1.1024) 128 C5     *py    (-7.5719) 135 C5     *d2-   ( 1.5836)
               141 C5     *d0    (-0.5566) 147 C5     *d2+   ( 0.9142) 149 C5     *f3-   ( 0.1027) 165 C6     *s     ( 1.5766)
               166 C6     *s     (48.7223) 169 C6     *px    (-1.9130) 170 C6     *px    (13.1202) 173 C6     *py    ( 1.1024)
               174 C6     *py    (-7.5719) 181 C6     *d2-   (-1.5836) 187 C6     *d0    (-0.5566) 193 C6     *d2+   ( 0.9142)
               195 C6     *f3-   ( 0.1027) 211 C7     *s     (-1.5766) 212 C7     *s     (*******) 215 C7     *px    (-1.9130)
               216 C7     *px    (13.1202) 219 C7     *py    ( 1.1024) 220 C7     *py    (-7.5719) 227 C7     *d2-   ( 1.5836)
               233 C7     *d0    ( 0.5566) 239 C7     *d2+   (-0.9142) 241 C7     *f3-   ( 0.1027) 257 C8     *s     (-1.5766)
               258 C8     *s     (*******) 261 C8     *px    ( 1.9130) 262 C8     *px    (*******) 265 C8     *py    ( 1.1024)
               266 C8     *py    (-7.5719) 273 C8     *d2-   (-1.5836) 279 C8     *d0    ( 0.5566) 285 C8     *d2+   (-0.9142)
               287 C8     *f3-   ( 0.1027) 301 H9     *s     ( 0.4361) 302 H9     *s     ( 8.2264) 303 H9     *s     (*******)
               306 H9     *px    (-1.3937) 309 H9     *py    ( 0.8040) 326 C10    *s     ( 1.5736) 327 C10    *s     (48.7224)
               334 C10    *py    (-2.2080) 335 C10    *py    (15.1449) 348 C10    *d0    (-0.5570) 354 C10    *d2+   (-1.8285)
               356 C10    *f3-   ( 0.1028) 370 H11    *s     ( 0.4361) 371 H11    *s     ( 8.2264) 372 H11    *s     (*******)
               375 H11    *px    ( 1.3937) 378 H11    *py    ( 0.8040) 393 H12    *s     (-0.4361) 394 H12    *s     (-8.2261)
               395 H12    *s     (12.8604) 401 H12    *py    (-1.6086)
         31    0.0978    0.0000                                                                                                           
                13 H1     *pz    (-0.1330)  36 H2     *pz    (-0.1330)  63 C3     *pz    ( 0.3131) 105 H4     *pz    (-0.1330)
               132 C5     *pz    ( 0.2472) 178 C6     *pz    ( 0.2472) 224 C7     *pz    ( 0.2472) 270 C8     *pz    ( 0.2472)
               312 H9     *pz    (-0.1330) 339 C10    *pz    ( 0.3131) 381 H11    *pz    (-0.1330) 404 H12    *pz    (-0.1330)
      
         32    0.1100    0.0000                                                                                                           
                13 H1     *pz    ( 0.2845)  36 H2     *pz    ( 0.1426)  62 C3     *pz    (-0.9382)  63 C3     *pz    (-1.2145)
                69 C3     *d1-   (-0.1175) 105 H4     *pz    ( 0.1426) 131 C5     *pz    (-0.4640) 132 C5     *pz    (-0.5749)
               138 C5     *d1-   ( 0.6495) 144 C5     *d1+   (-0.4449) 177 C6     *pz    (-0.4640) 178 C6     *pz    (-0.5749)
               184 C6     *d1-   ( 0.6495) 190 C6     *d1+   ( 0.4449) 223 C7     *pz    ( 0.4640) 224 C7     *pz    ( 0.5749)
               230 C7     *d1-   ( 0.6495) 236 C7     *d1+   ( 0.4449) 269 C8     *pz    ( 0.4640) 270 C8     *pz    ( 0.5749)
               276 C8     *d1-   ( 0.6495) 282 C8     *d1+   (-0.4449) 312 H9     *pz    (-0.1426) 338 C10    *pz    ( 0.9382)
               339 C10    *pz    ( 1.2145) 345 C10    *d1-   (-0.1175) 381 H11    *pz    (-0.1426) 404 H12    *pz    (-0.2845)
      
         33    0.1100    0.0000                                                                                                           
                36 H2     *pz    ( 0.2463)  75 C3     *d1+   ( 0.9063) 105 H4     *pz    (-0.2463) 131 C5     *pz    (-0.8092)
               132 C5     *pz    (-1.0328) 138 C5     *d1-   (-0.4438) 144 C5     *d1+   ( 0.1376) 177 C6     *pz    ( 0.8092)
               178 C6     *pz    ( 1.0328) 184 C6     *d1-   ( 0.4438) 190 C6     *d1+   ( 0.1376) 223 C7     *pz    (-0.8092)
               224 C7     *pz    (-1.0328) 230 C7     *d1-   ( 0.4438) 236 C7     *d1+   ( 0.1376) 269 C8     *pz    ( 0.8092)
               270 C8     *pz    ( 1.0328) 276 C8     *d1-   (-0.4438) 282 C8     *d1+   ( 0.1376) 312 H9     *pz    ( 0.2463)
               351 C10    *d1+   ( 0.9063) 381 H11    *pz    (-0.2463)
         34    0.1157    0.0000                                                                                                           
                 2 H1     *s     ( 0.1653)   3 H1     *s     ( 0.9365)   4 H1     *s     ( 0.6329)  10 H1     *py    (-0.1011)
                25 H2     *s     ( 0.1642)  26 H2     *s     ( 0.9312)  27 H2     *s     ( 0.6213)  50 C3     *s     (-1.2853)
                51 C3     *s     (-0.8098)  58 C3     *py    (-0.6611)  59 C3     *py    (-1.0527)  72 C3     *d0    (-0.1688)
                78 C3     *d2+   ( 0.4770)  94 H4     *s     ( 0.1642)  95 H4     *s     ( 0.9312)  96 H4     *s     ( 0.6213)
               119 C5     *s     (-1.2749) 120 C5     *s     (-0.8487) 123 C5     *px    (-0.5759) 124 C5     *px    (-0.9003)
               127 C5     *py    (-0.3331) 128 C5     *py    (-0.5239) 135 C5     *d2-   (-0.4105) 141 C5     *d0    (-0.1676)
               147 C5     *d2+   (-0.2334) 165 C6     *s     (-1.2749) 166 C6     *s     (-0.8487) 169 C6     *px    ( 0.5759)
               170 C6     *px    ( 0.9003) 173 C6     *py    (-0.3331) 174 C6     *py    (-0.5239) 181 C6     *d2-   ( 0.4105)
               187 C6     *d0    (-0.1676) 193 C6     *d2+   (-0.2334) 211 C7     *s     (-1.2749) 212 C7     *s     (-0.8487)
               215 C7     *px    (-0.5759) 216 C7     *px    (-0.9003) 219 C7     *py    ( 0.3331) 220 C7     *py    ( 0.5239)
               227 C7     *d2-   ( 0.4105) 233 C7     *d0    (-0.1676) 239 C7     *d2+   (-0.2334) 257 C8     *s     (-1.2749)
               258 C8     *s     (-0.8487) 261 C8     *px    ( 0.5759) 262 C8     *px    ( 0.9003) 265 C8     *py    ( 0.3331)
               266 C8     *py    ( 0.5239) 273 C8     *d2-   (-0.4105) 279 C8     *d0    (-0.1676) 285 C8     *d2+   (-0.2334)
               301 H9     *s     ( 0.1642) 302 H9     *s     ( 0.9312) 303 H9     *s     ( 0.6213) 326 C10    *s     (-1.2853)
               327 C10    *s     (-0.8098) 334 C10    *py    ( 0.6611) 335 C10    *py    ( 1.0527) 348 C10    *d0    (-0.1688)
               354 C10    *d2+   ( 0.4770) 370 H11    *s     ( 0.1642) 371 H11    *s     ( 0.9312) 372 H11    *s     ( 0.6213)
               393 H12    *s     ( 0.1653) 394 H12    *s     ( 0.9365) 395 H12    *s     ( 0.6329) 401 H12    *py    ( 0.1011)
      
         35    0.1183    0.0000                                                                                                           
                 2 H1     *s     ( 0.3679)   3 H1     *s     ( 5.4063)   4 H1     *s     (-5.1358)  10 H1     *py    (-0.7204)
                25 H2     *s     ( 0.1841)  26 H2     *s     ( 2.6613)  27 H2     *s     (-2.5702)  30 H2     *px    ( 0.1251)
                33 H2     *py    (-0.9234)  50 C3     *s     ( 1.9881)  51 C3     *s     (*******)  58 C3     *py    (-2.0941)
                59 C3     *py    ( 0.9288)  72 C3     *d0    ( 1.1280)  77 C3     *d2+   ( 0.1251)  78 C3     *d2+   ( 0.3860)
                94 H4     *s     ( 0.1841)  95 H4     *s     ( 2.6613)  96 H4     *s     (-2.5702)  99 H4     *px    (-0.1251)
               102 H4     *py    (-0.9234) 119 C5     *s     ( 0.9912) 120 C5     *s     (*******) 123 C5     *px    (-0.6562)
               124 C5     *px    (-6.3636) 127 C5     *py    (-0.9649) 128 C5     *py    (11.9571) 135 C5     *d2-   ( 0.6652)
               141 C5     *d0    ( 0.5624) 147 C5     *d2+   (-1.4964) 165 C6     *s     ( 0.9912) 166 C6     *s     (*******)
               169 C6     *px    ( 0.6562) 170 C6     *px    ( 6.3636) 173 C6     *py    (-0.9649) 174 C6     *py    (11.9570)
               181 C6     *d2-   (-0.6652) 187 C6     *d0    ( 0.5624) 193 C6     *d2+   (-1.4964) 211 C7     *s     (-0.9912)
               212 C7     *s     (15.0475) 215 C7     *px    ( 0.6562) 216 C7     *px    ( 6.3636) 219 C7     *py    (-0.9649)
               220 C7     *py    (11.9570) 227 C7     *d2-   ( 0.6652) 233 C7     *d0    (-0.5624) 239 C7     *d2+   ( 1.4964)
               257 C8     *s     (-0.9912) 258 C8     *s     (15.0474) 261 C8     *px    (-0.6562) 262 C8     *px    (-6.3636)
               265 C8     *py    (-0.9649) 266 C8     *py    (11.9571) 273 C8     *d2-   (-0.6652) 279 C8     *d0    (-0.5624)
               285 C8     *d2+   ( 1.4964) 301 H9     *s     (-0.1841) 302 H9     *s     (-2.6613) 303 H9     *s     ( 2.5702)
               306 H9     *px    (-0.1251) 309 H9     *py    (-0.9234) 326 C10    *s     (-1.9881) 327 C10    *s     (30.0328)
               334 C10    *py    (-2.0941) 335 C10    *py    ( 0.9288) 348 C10    *d0    (-1.1280) 353 C10    *d2+   (-0.1251)
               354 C10    *d2+   (-0.3860) 370 H11    *s     (-0.1841) 371 H11    *s     (-2.6613) 372 H11    *s     ( 2.5702)
               375 H11    *px    ( 0.1251) 378 H11    *py    (-0.9234) 393 H12    *s     (-0.3679) 394 H12    *s     (-5.4063)
               395 H12    *s     ( 5.1358) 401 H12    *py    (-0.7204)
         36    0.1183    0.0000                                                                                                           
                 7 H1     *px    (-0.9957)  25 H2     *s     ( 0.3191)  26 H2     *s     ( 4.6581)  27 H2     *s     (-4.4481)
                30 H2     *px    (-0.7854)  33 H2     *py    ( 0.1197)  54 C3     *px    (-0.5862)  55 C3     *px    (15.6322)
                66 C3     *d2-   ( 1.8763)  94 H4     *s     (-0.3191)  95 H4     *s     (-4.6581)  96 H4     *s     ( 4.4481)
                99 H4     *px    (-0.7854) 102 H4     *py    (-0.1197) 119 C5     *s     ( 1.7129) 120 C5     *s     (*******)
               123 C5     *px    (-1.7193) 124 C5     *px    ( 4.6027) 127 C5     *py    (-0.6512) 128 C5     *py    (-6.3569)
               135 C5     *d2-   (-0.7496) 141 C5     *d0    ( 0.9748) 147 C5     *d2+   ( 0.6504) 165 C6     *s     (-1.7129)
               166 C6     *s     (26.0135) 169 C6     *px    (-1.7193) 170 C6     *px    ( 4.6027) 173 C6     *py    ( 0.6512)
               174 C6     *py    ( 6.3569) 181 C6     *d2-   (-0.7496) 187 C6     *d0    (-0.9748) 193 C6     *d2+   (-0.6504)
               211 C7     *s     ( 1.7129) 212 C7     *s     (*******) 215 C7     *px    (-1.7193) 216 C7     *px    ( 4.6027)
               219 C7     *py    ( 0.6512) 220 C7     *py    ( 6.3569) 227 C7     *d2-   ( 0.7496) 233 C7     *d0    ( 0.9748)
               239 C7     *d2+   ( 0.6504) 257 C8     *s     (-1.7129) 258 C8     *s     (26.0135) 261 C8     *px    (-1.7193)
               262 C8     *px    ( 4.6027) 265 C8     *py    (-0.6512) 266 C8     *py    (-6.3569) 273 C8     *d2-   ( 0.7496)
               279 C8     *d0    (-0.9748) 285 C8     *d2+   (-0.6504) 301 H9     *s     ( 0.3191) 302 H9     *s     ( 4.6581)
               303 H9     *s     (-4.4481) 306 H9     *px    (-0.7854) 309 H9     *py    (-0.1197) 330 C10    *px    (-0.5862)
               331 C10    *px    (15.6322) 342 C10    *d2-   (-1.8763) 370 H11    *s     (-0.3191) 371 H11    *s     (-4.6581)
               372 H11    *s     ( 4.4481) 375 H11    *px    (-0.7854) 378 H11    *py    ( 0.1197) 398 H12    *px    (-0.9957)
      
         37    0.1245    0.0000                                                                                                           
                 7 H1     *px    ( 0.2587)  30 H2     *px    (-0.1339)  33 H2     *py    ( 0.2274)  54 C3     *px    (-0.4296)
                55 C3     *px    (-1.8251)  66 C3     *d2-   ( 0.1862)  99 H4     *px    (-0.1339) 102 H4     *py    (-0.2274)
               120 C5     *s     (-0.1001) 123 C5     *px    ( 0.2070) 124 C5     *px    ( 0.9596) 127 C5     *py    (-0.3727)
               128 C5     *py    (-1.6607) 147 C5     *d2+   (-0.1543) 166 C6     *s     ( 0.1001) 169 C6     *px    ( 0.2070)
               170 C6     *px    ( 0.9596) 173 C6     *py    ( 0.3727) 174 C6     *py    ( 1.6607) 193 C6     *d2+   ( 0.1543)
               212 C7     *s     (-0.1001) 215 C7     *px    ( 0.2070) 216 C7     *px    ( 0.9596) 219 C7     *py    ( 0.3727)
               220 C7     *py    ( 1.6607) 239 C7     *d2+   (-0.1543) 258 C8     *s     ( 0.1001) 261 C8     *px    ( 0.2070)
               262 C8     *px    ( 0.9596) 265 C8     *py    (-0.3727) 266 C8     *py    (-1.6607) 285 C8     *d2+   ( 0.1543)
               306 H9     *px    (-0.1339) 309 H9     *py    (-0.2274) 330 C10    *px    (-0.4296) 331 C10    *px    (-1.8251)
               342 C10    *d2-   (-0.1862) 375 H11    *px    (-0.1339) 378 H11    *py    ( 0.2274) 398 H12    *px    ( 0.2587)
      
         38    0.1295    0.0000                                                                                                           
                 7 H1     *px    ( 1.0451)  25 H2     *s     (-0.5049)  26 H2     *s     (-3.1378)  27 H2     *s     ( 9.1747)
                30 H2     *px    ( 0.3722)  33 H2     *py    ( 0.8178)  53 C3     *px    (-0.1486)  55 C3     *px    (-5.2406)
                66 C3     *d2-   (-1.9518)  94 H4     *s     ( 0.5049)  95 H4     *s     ( 3.1378)  96 H4     *s     (-9.1746)
                99 H4     *px    ( 0.3722) 102 H4     *py    (-0.8178) 119 C5     *s     ( 0.3225) 120 C5     *s     (40.4141)
               123 C5     *px    ( 1.7639) 124 C5     *px    (-8.3040) 127 C5     *py    ( 1.0062) 128 C5     *py    (-7.8274)
               135 C5     *d2-   (-1.0673) 141 C5     *d0    (-0.9301) 147 C5     *d2+   ( 0.5093) 149 C5     *f3-   ( 0.1485)
               165 C6     *s     (-0.3225) 166 C6     *s     (*******) 169 C6     *px    ( 1.7639) 170 C6     *px    (-8.3039)
               173 C6     *py    (-1.0062) 174 C6     *py    ( 7.8274) 181 C6     *d2-   (-1.0673) 187 C6     *d0    ( 0.9301)
               193 C6     *d2+   (-0.5093) 195 C6     *f3-   (-0.1485) 211 C7     *s     (-0.3225) 212 C7     *s     (*******)
               215 C7     *px    (-1.7639) 216 C7     *px    ( 8.3039) 219 C7     *py    ( 1.0062) 220 C7     *py    (-7.8274)
               227 C7     *d2-   (-1.0673) 233 C7     *d0    ( 0.9301) 239 C7     *d2+   (-0.5093) 241 C7     *f3-   ( 0.1485)
               257 C8     *s     ( 0.3225) 258 C8     *s     (40.4141) 261 C8     *px    (-1.7639) 262 C8     *px    ( 8.3040)
               265 C8     *py    (-1.0062) 266 C8     *py    ( 7.8274) 273 C8     *d2-   (-1.0673) 279 C8     *d0    (-0.9301)
               285 C8     *d2+   ( 0.5093) 287 C8     *f3-   (-0.1485) 301 H9     *s     ( 0.5049) 302 H9     *s     ( 3.1378)
               303 H9     *s     (-9.1746) 306 H9     *px    (-0.3722) 309 H9     *py    ( 0.8178) 329 C10    *px    ( 0.1486)
               331 C10    *px    ( 5.2406) 342 C10    *d2-   (-1.9518) 370 H11    *s     (-0.5049) 371 H11    *s     (-3.1379)
               372 H11    *s     ( 9.1747) 375 H11    *px    (-0.3722) 378 H11    *py    (-0.8178) 398 H12    *px    (-1.0451)
      
         39    0.1295    0.0000                                                                                                           
                 2 H1     *s     (-0.5834)   3 H1     *s     (-3.6262)   4 H1     *s     (10.5919)   9 H1     *py    ( 0.1273)
                10 H1     *py    ( 0.8457)  25 H2     *s     ( 0.2914)  26 H2     *s     ( 1.8105)  27 H2     *s     (-5.2977)
                30 H2     *px    (-0.8182)  33 H2     *py    ( 0.5722)  50 C3     *s     ( 0.3756)  51 C3     *s     (46.6701)
                58 C3     *py    ( 2.3457)  59 C3     *py    (*******)  72 C3     *d0    (-1.0739)  77 C3     *d2+   (-0.1054)
                78 C3     *d2+   ( 0.7735)  80 C3     *f3-   (-0.1715)  94 H4     *s     ( 0.2914)  95 H4     *s     ( 1.8106)
                96 H4     *s     (-5.2979)  99 H4     *px    ( 0.8182) 102 H4     *py    ( 0.5722) 119 C5     *s     (-0.1873)
               120 C5     *s     (*******) 123 C5     *px    (-1.0090) 124 C5     *px    ( 7.8265) 126 C5     *py    (-0.1252)
               127 C5     *py    (-0.5959) 128 C5     *py    (-0.7249) 135 C5     *d2-   (-0.5095) 141 C5     *d0    ( 0.5366)
               147 C5     *d2+   ( 1.6562) 165 C6     *s     (-0.1873) 166 C6     *s     (*******) 169 C6     *px    ( 1.0091)
               170 C6     *px    (-7.8267) 172 C6     *py    (-0.1252) 173 C6     *py    (-0.5959) 174 C6     *py    (-0.7248)
               181 C6     *d2-   ( 0.5094) 187 C6     *d0    ( 0.5367) 193 C6     *d2+   ( 1.6562) 211 C7     *s     (-0.1873)
               212 C7     *s     (*******) 215 C7     *px    (-1.0091) 216 C7     *px    ( 7.8267) 218 C7     *py    ( 0.1252)
               219 C7     *py    ( 0.5959) 220 C7     *py    ( 0.7248) 227 C7     *d2-   ( 0.5094) 233 C7     *d0    ( 0.5367)
               239 C7     *d2+   ( 1.6562) 257 C8     *s     (-0.1873) 258 C8     *s     (*******) 261 C8     *px    ( 1.0090)
               262 C8     *px    (-7.8265) 264 C8     *py    ( 0.1252) 265 C8     *py    ( 0.5959) 266 C8     *py    ( 0.7249)
               273 C8     *d2-   (-0.5095) 279 C8     *d0    ( 0.5366) 285 C8     *d2+   ( 1.6562) 301 H9     *s     ( 0.2914)
               302 H9     *s     ( 1.8106) 303 H9     *s     (-5.2979) 306 H9     *px    (-0.8182) 309 H9     *py    (-0.5722)
               326 C10    *s     ( 0.3756) 327 C10    *s     (46.6701) 334 C10    *py    (-2.3457) 335 C10    *py    (12.8276)
               348 C10    *d0    (-1.0739) 353 C10    *d2+   (-0.1054) 354 C10    *d2+   ( 0.7735) 356 C10    *f3-   ( 0.1715)
               370 H11    *s     ( 0.2914) 371 H11    *s     ( 1.8105) 372 H11    *s     (-5.2977) 375 H11    *px    ( 0.8182)
               378 H11    *py    (-0.5722) 393 H12    *s     (-0.5834) 394 H12    *s     (-3.6262) 395 H12    *s     (10.5919)
               400 H12    *py    (-0.1273) 401 H12    *py    (-0.8457)
         40    0.1364    0.0000                                                                                                           
                 2 H1     *s     ( 0.6041)   3 H1     *s     ( 4.1146)   4 H1     *s     ( 1.2868)   9 H1     *py    (-0.2289)
                10 H1     *py    (-0.8151)  25 H2     *s     ( 0.6056)  26 H2     *s     ( 4.1228)  27 H2     *s     ( 1.2768)
                29 H2     *px    (-0.1985)  30 H2     *px    (-0.7069)  32 H2     *py    (-0.1145)  33 H2     *py    (-0.4084)
                48 C3     2s     ( 0.1294)  50 C3     *s     (-2.0772)  51 C3     *s     (-3.1855)  57 C3     *py    (-0.1966)
                58 C3     *py    (-1.6159)  59 C3     *py    (-0.6794)  72 C3     *d0    ( 0.3660)  77 C3     *d2+   ( 0.1716)
                78 C3     *d2+   ( 0.3397)  94 H4     *s     ( 0.6056)  95 H4     *s     ( 4.1228)  96 H4     *s     ( 1.2768)
                98 H4     *px    ( 0.1985)  99 H4     *px    ( 0.7069) 101 H4     *py    (-0.1145) 102 H4     *py    (-0.4084)
               117 C5     2s     ( 0.1294) 119 C5     *s     (-2.0883) 120 C5     *s     (-3.2354) 122 C5     *px    (-0.1700)
[...]
      Correlation energy scaling factor                                       1.000000

      Integrated alpha exchange energy                                      -16.996677
      Integrated beta  exchange energy                                      -16.314781
      Integrated  correlation   energy                                       -1.384888

      Nuclear Repulsion energy                                            204.04227156
      Core energy                                                        -193.37423824
      CASSCF contribution energy                                         -197.25335906
      On-top energy                                                       -34.69634543

      Total MC-PDFT energy for state    6                                -231.94970449

      ********************************************************************************

 
The total execution time is limited to 42960 seconds.
--- Stop Module: mcpdft at Mon Jul 18 14:55:09 2022 /rc=_RC_ALL_IS_WELL_ ---
*** files: xmldump
    saved to directory /work/donglab/kaufold.b/Label-Tutorial/mr-C1
--- Module mcpdft spent 13 minutes 31 seconds ---

*** symbolic link created: INPORB -> mr-C1.RasOrb
--- Start Module: grid_it at Mon Jul 18 14:55:09 2022 ---

-- Input validation for grid_it
lxml python module not found, no validation possible
--
 
()()()()()()()()()()()()()()()()()()()()()()()()()()()()()()()()()()()()()()()()()()()()()()()()()()

                                              &GRID_IT

                       only a single process is used, running in SERIAL mode
                       available to each process: 46 GB of memory, 16 threads
                                             pid: 30245
()()()()()()()()()()()()()()()()()()()()()()()()()()()()()()()()()()()()()()()()()()()()()()()()()()
 
 INPORB file: mr-C1.RasOrb
 
      Cartesian coordinates:
      -----------------------------------------
      No.  Label     X         Y         Z     
      -----------------------------------------
       1   H1         0.00000   4.67266   0.00000
       2   H2         4.04723   2.33566   0.00000
       3   C3         0.00000   2.62829   0.00000
       4   H4        -4.04723   2.33566   0.00000
       5   C5         2.27648   1.31401   0.00000
       6   C6        -2.27648   1.31401   0.00000
       7   C7         2.27648  -1.31401   0.00000
       8   C8        -2.27648  -1.31401   0.00000
       9   H9         4.04723  -2.33566   0.00000
      10   C10        0.00000  -2.62829   0.00000
      11   H11       -4.04723  -2.33566   0.00000
      12   H12        0.00000  -4.67266   0.00000
      -----------------------------------------
      Grid Origin      =    -8.000000   -8.000000   -4.000000
      Grid Axis Length =    16.000000   16.000000    8.000000
      -----------------------------------------
 
 
   Input vectors read from INPORB
   Orbital file label: * RASSCF average (pseudo-natural) orbitals
  Number of grid points in file:                   18513
 
  Total number of MOs               :                   414
  Number MOs for grid               :                   415
  Batches processed in increments of:                 18432
 
GridName=  1  414     19.6670 (0.00) s
GridName=  1  413     19.3880 (0.00) s
GridName=  1  412     19.3850 (0.00) s
GridName=  1  411     17.1900 (0.00) s
GridName=  1  410     16.1220 (0.00) s
GridName=  1  409     16.1180 (0.00) s
GridName=  1  408      7.4571 (0.00) s
GridName=  1  407      7.2314 (0.00) s
GridName=  1  406      7.0431 (0.00) s
GridName=  1  405      6.8656 (0.00) s
GridName=  1  404      6.8653 (0.00) s
GridName=  1  402      6.6589 (0.00) s
GridName=  1  403      6.6589 (0.00) s
GridName=  1  401      6.4030 (0.00) s
GridName=  1  400      6.3683 (0.00) s
GridName=  1  399      6.3679 (0.00) s
GridName=  1  398      6.2774 (0.00) s
GridName=  1  397      6.2773 (0.00) s
GridName=  1  396      6.1690 (0.00) s
GridName=  1  395      6.1687 (0.00) s
GridName=  1  394      5.9899 (0.00) s
GridName=  1  393      5.9291 (0.00) s
GridName=  1  392      5.8855 (0.00) s
GridName=  1  391      5.8628 (0.00) s
GridName=  1  390      5.7977 (0.00) s
GridName=  1  389      5.7974 (0.00) s
GridName=  1  388      5.7486 (0.00) s
GridName=  1  387      5.7483 (0.00) s
GridName=  1  386      5.5415 (0.00) s
GridName=  1  385      5.5059 (0.00) s
GridName=  1  384      5.4433 (0.00) s
GridName=  1  383      5.4430 (0.00) s
GridName=  1  382      5.4371 (0.00) s
GridName=  1  381      5.4367 (0.00) s
GridName=  1  380      5.3603 (0.00) s
GridName=  1  379      5.3506 (0.00) s
GridName=  1  378      5.3425 (0.00) s
GridName=  1  377      5.3421 (0.00) s
GridName=  1  376      5.2377 (0.00) s
GridName=  1  375      5.2375 (0.00) s
GridName=  1  374      5.1893 (0.00) s
GridName=  1  373      5.1872 (0.00) s
GridName=  1  372      5.1836 (0.00) s
GridName=  1  371      5.1831 (0.00) s
GridName=  1  369      5.1545 (0.00) s
GridName=  1  370      5.1545 (0.00) s
GridName=  1  368      5.1209 (0.00) s
GridName=  1  367      5.1124 (0.00) s
GridName=  1  366      5.0816 (0.00) s
GridName=  1  365      5.0811 (0.00) s
GridName=  1  363      5.0757 (0.00) s
GridName=  1  364      5.0757 (0.00) s
GridName=  1  362      5.0379 (0.00) s
GridName=  1  361      5.0378 (0.00) s
GridName=  1  360      4.9464 (0.00) s
GridName=  1  359      4.9348 (0.00) s
GridName=  1  358      4.9293 (0.00) s
GridName=  1  356      4.8883 (0.00) s
GridName=  1  357      4.8883 (0.00) s
GridName=  1  355      4.7973 (0.00) s
GridName=  1  354      4.7972 (0.00) s
GridName=  1  353      4.7386 (0.00) s
GridName=  1  352      4.7280 (0.00) s
GridName=  1  351      4.7279 (0.00) s
GridName=  1  350      4.7247 (0.00) s
GridName=  1  349      4.7244 (0.00) s
GridName=  1  348      4.7058 (0.00) s
GridName=  1  347      4.6047 (0.00) s
GridName=  1  346      4.5093 (0.00) s
GridName=  1  345      4.5092 (0.00) s
GridName=  1  343      4.4716 (0.00) s
GridName=  1  344      4.4716 (0.00) s
GridName=  1  342      4.4671 (0.00) s
GridName=  1  341      4.4436 (0.00) s
GridName=  1  340      4.4433 (0.00) s
GridName=  1  339      4.4341 (0.00) s
GridName=  1  338      4.4338 (0.00) s
GridName=  1  337      4.4321 (0.00) s
GridName=  1  336      4.3627 (0.00) s
GridName=  1  335      4.3622 (0.00) s
GridName=  1  334      4.3621 (0.00) s
GridName=  1  332      4.3359 (0.00) s
GridName=  1  333      4.3359 (0.00) s
GridName=  1  331      4.2884 (0.00) s
GridName=  1  330      4.2801 (0.00) s
GridName=  1  329      4.2473 (0.00) s
GridName=  1  328      4.2469 (0.00) s
GridName=  1  327      4.2094 (0.00) s
GridName=  1  326      4.1883 (0.00) s
GridName=  1  325      4.1754 (0.00) s
GridName=  1  324      4.1323 (0.00) s
GridName=  1  323      4.1321 (0.00) s
GridName=  1  322      4.1298 (0.00) s
GridName=  1  321      4.1092 (0.00) s
GridName=  1  320      4.1090 (0.00) s
GridName=  1  319      4.0601 (0.00) s
GridName=  1  318      4.0498 (0.00) s
GridName=  1  317      4.0497 (0.00) s
GridName=  1  316      4.0306 (0.00) s
GridName=  1  315      4.0303 (0.00) s
GridName=  1  314      3.9904 (0.00) s
GridName=  1  312      3.9885 (0.00) s
GridName=  1  313      3.9885 (0.00) s
GridName=  1  311      3.9629 (0.00) s
GridName=  1  310      3.9627 (0.00) s
GridName=  1  309      3.8696 (0.00) s
GridName=  1  308      3.8693 (0.00) s
GridName=  1  307      3.8427 (0.00) s
GridName=  1  306      3.8425 (0.00) s
GridName=  1  305      3.8376 (0.00) s
GridName=  1  304      3.8374 (0.00) s
GridName=  1  302      3.8323 (0.00) s
GridName=  1  303      3.8323 (0.00) s
GridName=  1  301      3.8136 (0.00) s
GridName=  1  300      3.8069 (0.00) s
GridName=  1  299      3.7745 (0.00) s
GridName=  1  298      3.7538 (0.00) s
GridName=  1  297      3.6582 (0.00) s
GridName=  1  296      3.6578 (0.00) s
GridName=  1  295      3.6575 (0.00) s
GridName=  1  294      3.6306 (0.00) s
GridName=  1  293      3.6121 (0.00) s
GridName=  1  292      3.5853 (0.00) s
GridName=  1  291      3.5734 (0.00) s
GridName=  1  290      3.5732 (0.00) s
GridName=  1  289      3.5500 (0.00) s
GridName=  1  288      3.5499 (0.00) s
GridName=  1  287      3.5328 (0.00) s
GridName=  1  286      3.5326 (0.00) s
GridName=  1  285      3.5219 (0.00) s
GridName=  1  284      3.5217 (0.00) s
GridName=  1  283      3.4291 (0.00) s
GridName=  1  282      3.4290 (0.00) s
GridName=  1  281      3.4108 (0.00) s
GridName=  1  280      3.4017 (0.00) s
GridName=  1  279      3.3858 (0.00) s
GridName=  1  278      3.3802 (0.00) s
GridName=  1  277      3.3800 (0.00) s
GridName=  1  276      3.3646 (0.00) s
GridName=  1  275      3.3643 (0.00) s
GridName=  1  274      3.3252 (0.00) s
GridName=  1  272      3.3187 (0.00) s
GridName=  1  273      3.3187 (0.00) s
GridName=  1  271      3.3050 (0.00) s
GridName=  1  269      3.2245 (0.00) s
GridName=  1  270      3.2245 (0.00) s
GridName=  1  267      3.1640 (0.00) s
GridName=  1  268      3.1640 (0.00) s
GridName=  1  266      3.1253 (0.00) s
GridName=  1  265      3.0850 (0.00) s
GridName=  1  264      3.0849 (0.00) s
GridName=  1  263      2.9260 (0.00) s
GridName=  1  262      2.8435 (0.00) s
GridName=  1  261      2.8432 (0.00) s
GridName=  1  260      2.8378 (0.00) s
GridName=  1  259      2.7968 (0.00) s
GridName=  1  258      2.7677 (0.00) s
GridName=  1  257      2.7565 (0.00) s
GridName=  1  256      2.7166 (0.00) s
GridName=  1  255      2.6944 (0.00) s
GridName=  1  254      2.5958 (0.00) s
GridName=  1  253      2.5953 (0.00) s
GridName=  1  252      2.5708 (0.00) s
GridName=  1  250      2.5646 (0.00) s
GridName=  1  251      2.5646 (0.00) s
GridName=  1  249      2.5103 (0.00) s
GridName=  1  248      2.5102 (0.00) s
GridName=  1  247      2.4395 (0.00) s
GridName=  1  246      2.4007 (0.00) s
GridName=  1  245      2.3737 (0.00) s
GridName=  1  244      2.3735 (0.00) s
GridName=  1  243      2.3692 (0.00) s
GridName=  1  242      2.3691 (0.00) s
GridName=  1  241      2.3544 (0.00) s
GridName=  1  240      2.3386 (0.00) s
GridName=  1  239      2.3382 (0.00) s
GridName=  1  238      2.2687 (0.00) s
GridName=  1  237      2.2686 (0.00) s
GridName=  1  235      2.2235 (0.00) s
GridName=  1  236      2.2235 (0.00) s
GridName=  1  234      2.1170 (0.00) s
GridName=  1  232      2.1012 (0.00) s
GridName=  1  233      2.1012 (0.00) s
GridName=  1  231      2.1011 (0.00) s
GridName=  1  230      2.0879 (0.00) s
GridName=  1  229      2.0875 (0.00) s
GridName=  1  228      2.0621 (0.00) s
GridName=  1  227      2.0553 (0.00) s
GridName=  1  226      2.0551 (0.00) s
GridName=  1  225      2.0429 (0.00) s
GridName=  1  224      2.0143 (0.00) s
GridName=  1  223      2.0142 (0.00) s
GridName=  1  222      2.0066 (0.00) s
GridName=  1  221      2.0064 (0.00) s
GridName=  1  220      1.9933 (0.00) s
GridName=  1  219      1.9932 (0.00) s
GridName=  1  218      1.9693 (0.00) s
GridName=  1  217      1.9272 (0.00) s
GridName=  1  216      1.9100 (0.00) s
GridName=  1  215      1.9099 (0.00) s
GridName=  1  214      1.8865 (0.00) s
GridName=  1  213      1.8864 (0.00) s
GridName=  1  212      1.8805 (0.00) s
GridName=  1  211      1.8487 (0.00) s
GridName=  1  210      1.8364 (0.00) s
GridName=  1  209      1.8363 (0.00) s
GridName=  1  208      1.8292 (0.00) s
GridName=  1  207      1.8290 (0.00) s
GridName=  1  206      1.8202 (0.00) s
GridName=  1  205      1.7910 (0.00) s
GridName=  1  204      1.7754 (0.00) s
GridName=  1  203      1.7579 (0.00) s
GridName=  1  202      1.7578 (0.00) s
GridName=  1  201      1.7115 (0.00) s
GridName=  1  200      1.7114 (0.00) s
GridName=  1  199      1.7057 (0.00) s
GridName=  1  197      1.6920 (0.00) s
GridName=  1  198      1.6920 (0.00) s
GridName=  1  196      1.6755 (0.00) s
GridName=  1  195      1.6754 (0.00) s
GridName=  1  194      1.6357 (0.00) s
GridName=  1  193      1.5436 (0.00) s
GridName=  1  192      1.5176 (0.00) s
GridName=  1  191      1.5175 (0.00) s
GridName=  1  190      1.5158 (0.00) s
GridName=  1  189      1.5120 (0.00) s
GridName=  1  188      1.5119 (0.00) s
GridName=  1  187      1.4870 (0.00) s
GridName=  1  186      1.4766 (0.00) s
GridName=  1  185      1.4765 (0.00) s
GridName=  1  184      1.4261 (0.00) s
GridName=  1  183      1.4020 (0.00) s
GridName=  1  182      1.4019 (0.00) s
GridName=  1  181      1.3975 (0.00) s
GridName=  1  180      1.3973 (0.00) s
GridName=  1  179      1.3892 (0.00) s
GridName=  1  178      1.3664 (0.00) s
GridName=  1  176      1.3608 (0.00) s
GridName=  1  177      1.3608 (0.00) s
GridName=  1  175      1.3264 (0.00) s
GridName=  1  173      1.2757 (0.00) s
GridName=  1  174      1.2757 (0.00) s
GridName=  1  172      1.2697 (0.00) s
GridName=  1  171      1.2636 (0.00) s
GridName=  1  169      1.2395 (0.00) s
GridName=  1  170      1.2395 (0.00) s
GridName=  1  168      1.2217 (0.00) s
GridName=  1  167      1.2216 (0.00) s
GridName=  1  166      1.2200 (0.00) s
GridName=  1  164      1.2052 (0.00) s
GridName=  1  165      1.2052 (0.00) s
GridName=  1  162      1.1815 (0.00) s
GridName=  1  163      1.1815 (0.00) s
GridName=  1  160      1.1759 (0.00) s
GridName=  1  161      1.1759 (0.00) s
GridName=  1  159      1.1524 (0.00) s
GridName=  1  157      1.1432 (0.00) s
GridName=  1  158      1.1432 (0.00) s
GridName=  1  156      1.1083 (0.00) s
GridName=  1  155      1.1057 (0.00) s
GridName=  1  154      1.1055 (0.00) s
GridName=  1  153      1.1051 (0.00) s
GridName=  1  152      1.1046 (0.00) s
GridName=  1  151      1.0929 (0.00) s
GridName=  1  150      1.0843 (0.00) s
GridName=  1  148      1.0820 (0.00) s
GridName=  1  149      1.0820 (0.00) s
GridName=  1  147      1.0661 (0.00) s
GridName=  1  146      1.0660 (0.00) s
GridName=  1  145      1.0330 (0.00) s
GridName=  1  144      1.0329 (0.00) s
GridName=  1  142      1.0310 (0.00) s
GridName=  1  143      1.0310 (0.00) s
GridName=  1  141      0.9952 (0.00) s
GridName=  1  140      0.9871 (0.00) s
GridName=  1  139      0.9870 (0.00) s
GridName=  1  138      0.9587 (0.00) s
GridName=  1  137      0.9544 (0.00) s
GridName=  1  136      0.9490 (0.00) s
GridName=  1  135      0.9490 (0.00) s
GridName=  1  134      0.9225 (0.00) s
GridName=  1  133      0.9054 (0.00) s
GridName=  1  132      0.9053 (0.00) s
GridName=  1  131      0.9000 (0.00) s
GridName=  1  130      0.8876 (0.00) s
GridName=  1  129      0.8874 (0.00) s
GridName=  1  128      0.8755 (0.00) s
GridName=  1  127      0.8753 (0.00) s
GridName=  1  126      0.8689 (0.00) s
GridName=  1  125      0.8688 (0.00) s
GridName=  1  124      0.8489 (0.00) s
GridName=  1  123      0.8488 (0.00) s
GridName=  1  122      0.8465 (0.00) s
GridName=  1  121      0.8415 (0.00) s
GridName=  1  119      0.8186 (0.00) s
GridName=  1  120      0.8186 (0.00) s
GridName=  1  118      0.8022 (0.00) s
GridName=  1  117      0.7903 (0.00) s
GridName=  1  116      0.7614 (0.00) s
GridName=  1  115      0.7614 (0.00) s
GridName=  1  114      0.7441 (0.00) s
GridName=  1  113      0.7314 (0.00) s
GridName=  1  112      0.7313 (0.00) s
GridName=  1  111      0.7275 (0.00) s
GridName=  1  110      0.7104 (0.00) s
GridName=  1  109      0.7048 (0.00) s
GridName=  1  108      0.7017 (0.00) s
GridName=  1  107      0.7016 (0.00) s
GridName=  1  106      0.6650 (0.00) s
GridName=  1  105      0.6650 (0.00) s
GridName=  1  104      0.6530 (0.00) s
GridName=  1  103      0.6530 (0.00) s
GridName=  1  102      0.6331 (0.00) s
GridName=  1  101      0.6331 (0.00) s
GridName=  1  100      0.6292 (0.00) s
GridName=  1   99      0.6289 (0.00) s
GridName=  1   98      0.6153 (0.00) s
GridName=  1   97      0.5791 (0.00) s
GridName=  1   96      0.5429 (0.00) s
GridName=  1   95      0.5429 (0.00) s
GridName=  1   94      0.5356 (0.00) s
GridName=  1   93      0.5350 (0.00) s
GridName=  1   92      0.5256 (0.00) s
GridName=  1   91      0.5256 (0.00) s
GridName=  1   90      0.5238 (0.00) s
GridName=  1   89      0.5238 (0.00) s
GridName=  1   88      0.5041 (0.00) s
GridName=  1   87      0.5029 (0.00) s
GridName=  1   86      0.4915 (0.00) s
GridName=  1   85      0.4914 (0.00) s
GridName=  1   84      0.4811 (0.00) s
GridName=  1   83      0.4769 (0.00) s
GridName=  1   82      0.4768 (0.00) s
GridName=  1   81      0.4635 (0.00) s
GridName=  1   80      0.4634 (0.00) s
GridName=  1   79      0.4526 (0.00) s
GridName=  1   78      0.4418 (0.00) s
GridName=  1   77      0.4416 (0.00) s
GridName=  1   76      0.4331 (0.00) s
GridName=  1   75      0.4330 (0.00) s
GridName=  1   74      0.4216 (0.00) s
GridName=  1   73      0.4203 (0.00) s
GridName=  1   72      0.3974 (0.00) s
GridName=  1   71      0.3767 (0.00) s
GridName=  1   70      0.3765 (0.00) s
GridName=  1   69      0.3623 (0.00) s
GridName=  1   68      0.3507 (0.00) s
GridName=  1   67      0.3507 (0.00) s
GridName=  1   65      0.3475 (0.00) s
GridName=  1   66      0.3475 (0.00) s
GridName=  1   64      0.3325 (0.00) s
GridName=  1   63      0.3254 (0.00) s
GridName=  1   62      0.3253 (0.00) s
GridName=  1   61      0.3089 (0.00) s
GridName=  1   60      0.3089 (0.00) s
GridName=  1   59      0.3081 (0.00) s
GridName=  1   58      0.3025 (0.00) s
GridName=  1   57      0.2967 (0.00) s
GridName=  1   56      0.2967 (0.00) s
GridName=  1   55      0.2707 (0.00) s
GridName=  1   54      0.2562 (0.00) s
GridName=  1   53      0.2562 (0.00) s
GridName=  1   52      0.2546 (0.00) s
GridName=  1   51      0.2483 (0.00) s
GridName=  1   50      0.2483 (0.00) s
GridName=  1   49      0.2317 (0.00) s
GridName=  1   48      0.1680 (0.00) s
GridName=  1   47      0.1587 (0.00) s
GridName=  1   46      0.1587 (0.00) s
GridName=  1   45      0.1554 (0.00) s
GridName=  1   44      0.1430 (0.00) s
GridName=  1   43      0.1430 (0.00) s
GridName=  1   42      0.1430 (0.00) s
GridName=  1   41      0.1427 (0.00) s
GridName=  1   40      0.1364 (0.00) s
GridName=  1   39      0.1295 (0.00) s
GridName=  1   38      0.1295 (0.00) s
GridName=  1   37      0.1245 (0.00) s
GridName=  1   36      0.1183 (0.00) s
GridName=  1   35      0.1182 (0.00) s
GridName=  1   34      0.1157 (0.00) s
GridName=  1   33      0.1100 (0.00) s
GridName=  1   32      0.1100 (0.00) s
GridName=  1   31      0.0978 (0.00) s
GridName=  1   30      0.0649 (0.00) s
GridName=  1   29      0.0486 (0.00) s
GridName=  1   28      0.0486 (0.00) s
GridName=  1   27      0.0353 (0.00) s
GridName=  1   26      0.0353 (0.00) s
GridName=  1   25      0.0300 (0.00) s
GridName=  1   24      0.0000 (0.11) 2
GridName=  1   22      0.0000 (0.52) 2
GridName=  1   23      0.0000 (0.52) 2
GridName=  1   20      0.0000 (1.52) 2
GridName=  1   21      0.0000 (1.52) 2
GridName=  1   19      0.0000 (1.80) 2
GridName=  1   18     -0.4928 (2.00) i
GridName=  1   17     -0.4928 (2.00) i
GridName=  1   16     -0.5874 (2.00) i
GridName=  1   15     -0.5878 (2.00) i
GridName=  1   14     -0.6193 (2.00) i
GridName=  1   13     -0.6400 (2.00) i
GridName=  1   12     -0.7099 (2.00) i
GridName=  1   11     -0.8235 (2.00) i
GridName=  1   10     -0.8236 (2.00) i
GridName=  1    9     -1.0132 (2.00) i
GridName=  1    8     -1.0137 (2.00) i
GridName=  1    7     -1.1516 (2.00) i
GridName=  1    6    -11.2250 (2.00) i
GridName=  1    5    -11.2260 (2.00) i
GridName=  1    3    -11.2270 (2.00) i
GridName=  1    4    -11.2270 (2.00) i
GridName=  1    1    -11.2280 (2.00) i
GridName=  1    2    -11.2280 (2.00) i
 
The total execution time is limited to 42960 seconds.
--- Stop Module: grid_it at Mon Jul 18 14:55:11 2022 /rc=_RC_ALL_IS_WELL_ ---
*** files: mr-C1.lus xmldump
    saved to directory /work/donglab/kaufold.b/Label-Tutorial/mr-C1
--- Module grid_it spent 1 second ---

.##################.
.# Happy landing! #.
.##################.

    Timing: Wall=8474.99 User=51706.49 System=4243.06
*************************************************************************
*** WorkDir at /scratch/kaufold.b/OpenMolcas/29130792_0/mr-C1 cleaned ***
*************************************************************************
