 Entering Gaussian System, Link 0=g16
 Input=optimization-gaussian.gjf
 Output=optimization-gaussian.log
 Initial command:
 /shared/centos7/gaussian/g16/l1.exe "/scratch/kaufold.b/Gaussian/29116649_0/Gau-53517.inp" -scrdir="/scratch/kaufold.b/Gaussian/29116649_0/"
 Default is to use a total of  16 processors:
                               16 via shared-memory
                                1 via Linda
 Entering Link 1 = /shared/centos7/gaussian/g16/l1.exe PID=     53518.
  
 Copyright (c) 1988,1990,1992,1993,1995,1998,2003,2009,2016,
            Gaussian, Inc.  All Rights Reserved.
  
 This is part of the Gaussian(R) 16 program.  It is based on
 the Gaussian(R) 09 system (copyright 2009, Gaussian, Inc.),
 the Gaussian(R) 03 system (copyright 2003, Gaussian, Inc.),
 the Gaussian(R) 98 system (copyright 1998, Gaussian, Inc.),
 the Gaussian(R) 94 system (copyright 1995, Gaussian, Inc.),
 the Gaussian 92(TM) system (copyright 1992, Gaussian, Inc.),
 the Gaussian 90(TM) system (copyright 1990, Gaussian, Inc.),
 the Gaussian 88(TM) system (copyright 1988, Gaussian, Inc.),
 the Gaussian 86(TM) system (copyright 1986, Carnegie Mellon
 University), and the Gaussian 82(TM) system (copyright 1983,
 Carnegie Mellon University). Gaussian is a federally registered
 trademark of Gaussian, Inc.
  
 This software contains proprietary and confidential information,
 including trade secrets, belonging to Gaussian, Inc.
  
 This software is provided under written license and may be
 used, copied, transmitted, or stored only in accord with that
 written license.
  
 The following legend is applicable only to US Government
 contracts under FAR:
  
                    RESTRICTED RIGHTS LEGEND
  
 Use, reproduction and disclosure by the US Government is
 subject to restrictions as set forth in subparagraphs (a)
 and (c) of the Commercial Computer Software - Restricted
 Rights clause in FAR 52.227-19.
  
 Gaussian, Inc.
 340 Quinnipiac St., Bldg. 40, Wallingford CT 06492
  
  
 ---------------------------------------------------------------
 Warning -- This program may not be used in any manner that
 competes with the business of Gaussian, Inc. or will provide
 assistance to any competitor of Gaussian, Inc.  The licensee
 of this program is prohibited from giving any competitor of
 Gaussian, Inc. access to this program.  By using this program,
 the user acknowledges that Gaussian, Inc. is engaged in the
 business of creating and licensing software in the field of
 computational chemistry and represents and warrants to the
 licensee that it is not a competitor of Gaussian, Inc. and that
 it will not use this program in any manner prohibited above.
 ---------------------------------------------------------------
  

 Cite this work as:
 Gaussian 16, Revision A.03,
 M. J. Frisch, G. W. Trucks, H. B. Schlegel, G. E. Scuseria, 
 M. A. Robb, J. R. Cheeseman, G. Scalmani, V. Barone, 
 G. A. Petersson, H. Nakatsuji, X. Li, M. Caricato, A. V. Marenich, 
 J. Bloino, B. G. Janesko, R. Gomperts, B. Mennucci, H. P. Hratchian, 
 J. V. Ortiz, A. F. Izmaylov, J. L. Sonnenberg, D. Williams-Young, 
 F. Ding, F. Lipparini, F. Egidi, J. Goings, B. Peng, A. Petrone, 
 T. Henderson, D. Ranasinghe, V. G. Zakrzewski, J. Gao, N. Rega, 
 G. Zheng, W. Liang, M. Hada, M. Ehara, K. Toyota, R. Fukuda, 
 J. Hasegawa, M. Ishida, T. Nakajima, Y. Honda, O. Kitao, H. Nakai, 
 T. Vreven, K. Throssell, J. A. Montgomery, Jr., J. E. Peralta, 
 F. Ogliaro, M. J. Bearpark, J. J. Heyd, E. N. Brothers, K. N. Kudin, 
 V. N. Staroverov, T. A. Keith, R. Kobayashi, J. Normand, 
 K. Raghavachari, A. P. Rendell, J. C. Burant, S. S. Iyengar, 
 J. Tomasi, M. Cossi, J. M. Millam, M. Klene, C. Adamo, R. Cammi, 
 J. W. Ochterski, R. L. Martin, K. Morokuma, O. Farkas, 
 J. B. Foresman, and D. J. Fox, Gaussian, Inc., Wallingford CT, 2016.
 
 ******************************************
 Gaussian 16:  EM64L-G16RevA.03 25-Dec-2016
                17-Jul-2022 
 ******************************************
 %Chk=optimization-gaussian.chk
 -----------------------------------------------------
 #T Opt Freq=NoRaman Symmetry=Follow B3LYP/aug-cc-pVTZ
 -----------------------------------------------------
 --------------------
 Benzene Optimization
 --------------------
 Symbolic Z-matrix:
 Charge =  0 Multiplicity = 1
 H                     0.        2.        0. 
 H                     2.        1.        0. 
 C                     0.        1.        0. 
 H                    -2.        1.        0. 
 C                     1.        0.5       0. 
 C                    -1.        0.5       0. 
 C                     1.       -0.5       0. 
 C                    -1.       -0.5       0. 
 H                     2.       -1.        0. 
 C                     0.       -1.        0. 
 H                    -2.       -1.        0. 
 H                     0.       -2.        0. 
 

 GradGradGradGradGradGradGradGradGradGradGradGradGradGradGradGradGradGrad
 Initialization pass.
                           ----------------------------
                           !    Initial Parameters    !
                           ! (Angstroms and Degrees)  !
 --------------------------                            --------------------------
 ! Name  Definition              Value          Derivative Info.                !
 --------------------------------------------------------------------------------
 ! R1    R(1,3)                  1.0            estimate D2E/DX2                !
 ! R2    R(2,5)                  1.118          estimate D2E/DX2                !
 ! R3    R(3,5)                  1.118          estimate D2E/DX2                !
 ! R4    R(3,6)                  1.118          estimate D2E/DX2                !
 ! R5    R(3,7)                  1.8028         estimate D2E/DX2                !
 ! R6    R(3,8)                  1.8028         estimate D2E/DX2                !
 ! R7    R(4,6)                  1.118          estimate D2E/DX2                !
 ! R8    R(5,7)                  1.0            estimate D2E/DX2                !
 ! R9    R(5,10)                 1.8028         estimate D2E/DX2                !
 ! R10   R(6,8)                  1.0            estimate D2E/DX2                !
 ! R11   R(6,10)                 1.8028         estimate D2E/DX2                !
 ! R12   R(7,9)                  1.118          estimate D2E/DX2                !
 ! R13   R(7,10)                 1.118          estimate D2E/DX2                !
 ! R14   R(8,10)                 1.118          estimate D2E/DX2                !
 ! R15   R(8,11)                 1.118          estimate D2E/DX2                !
 ! R16   R(10,12)                1.0            estimate D2E/DX2                !
 ! A1    A(1,3,5)              116.5651         estimate D2E/DX2                !
 ! A2    A(1,3,6)              116.5651         estimate D2E/DX2                !
 ! A3    A(1,3,7)              146.3099         estimate D2E/DX2                !
 ! A4    A(1,3,8)              146.3099         estimate D2E/DX2                !
 ! A5    A(5,3,6)              126.8699         estimate D2E/DX2                !
 ! A6    A(5,3,8)               97.125          estimate D2E/DX2                !
 ! A7    A(6,3,7)               97.125          estimate D2E/DX2                !
 ! A8    A(7,3,8)               67.3801         estimate D2E/DX2                !
 ! A9    A(2,5,3)              126.8699         estimate D2E/DX2                !
 ! A10   A(2,5,7)              116.5651         estimate D2E/DX2                !
 ! A11   A(2,5,10)             150.2551         estimate D2E/DX2                !
 ! A12   A(3,5,10)              82.875          estimate D2E/DX2                !
 ! A13   A(3,6,4)              126.8699         estimate D2E/DX2                !
 ! A14   A(3,6,10)              82.875          estimate D2E/DX2                !
 ! A15   A(4,6,8)              116.5651         estimate D2E/DX2                !
 ! A16   A(4,6,10)             150.2551         estimate D2E/DX2                !
 ! A17   A(3,7,9)              150.2551         estimate D2E/DX2                !
 ! A18   A(3,7,10)              82.875          estimate D2E/DX2                !
 ! A19   A(5,7,9)              116.5651         estimate D2E/DX2                !
 ! A20   A(9,7,10)             126.8699         estimate D2E/DX2                !
 ! A21   A(3,8,10)              82.875          estimate D2E/DX2                !
 ! A22   A(3,8,11)             150.2551         estimate D2E/DX2                !
 ! A23   A(6,8,11)             116.5651         estimate D2E/DX2                !
 ! A24   A(10,8,11)            126.8699         estimate D2E/DX2                !
 ! A25   A(5,10,6)              67.3801         estimate D2E/DX2                !
 ! A26   A(5,10,8)              97.125          estimate D2E/DX2                !
 ! A27   A(5,10,12)            146.3099         estimate D2E/DX2                !
 ! A28   A(6,10,7)              97.125          estimate D2E/DX2                !
 ! A29   A(6,10,12)            146.3099         estimate D2E/DX2                !
 ! A30   A(7,10,8)             126.8699         estimate D2E/DX2                !
 ! A31   A(7,10,12)            116.5651         estimate D2E/DX2                !
 ! A32   A(8,10,12)            116.5651         estimate D2E/DX2                !
 ! D1    D(1,3,5,2)              0.0            estimate D2E/DX2                !
 ! D2    D(1,3,5,10)           180.0            estimate D2E/DX2                !
 ! D3    D(6,3,5,2)            180.0            estimate D2E/DX2                !
 ! D4    D(6,3,5,10)             0.0            estimate D2E/DX2                !
 ! D5    D(8,3,5,2)            180.0            estimate D2E/DX2                !
 ! D6    D(8,3,5,10)             0.0            estimate D2E/DX2                !
 ! D7    D(1,3,6,4)              0.0            estimate D2E/DX2                !
 ! D8    D(1,3,6,10)           180.0            estimate D2E/DX2                !
 ! D9    D(5,3,6,4)            180.0            estimate D2E/DX2                !
 ! D10   D(5,3,6,10)             0.0            estimate D2E/DX2                !
 ! D11   D(7,3,6,4)            180.0            estimate D2E/DX2                !
 ! D12   D(7,3,6,10)             0.0            estimate D2E/DX2                !
 ! D13   D(1,3,7,9)              0.0            estimate D2E/DX2                !
 ! D14   D(1,3,7,10)           180.0            estimate D2E/DX2                !
 ! D15   D(6,3,7,9)            180.0            estimate D2E/DX2                !
 ! D16   D(6,3,7,10)             0.0            estimate D2E/DX2                !
 ! D17   D(8,3,7,9)            180.0            estimate D2E/DX2                !
 ! D18   D(8,3,7,10)             0.0            estimate D2E/DX2                !
 ! D19   D(1,3,8,10)           180.0            estimate D2E/DX2                !
 ! D20   D(1,3,8,11)             0.0            estimate D2E/DX2                !
 ! D21   D(5,3,8,10)             0.0            estimate D2E/DX2                !
 ! D22   D(5,3,8,11)           180.0            estimate D2E/DX2                !
 ! D23   D(7,3,8,10)             0.0            estimate D2E/DX2                !
 ! D24   D(7,3,8,11)           180.0            estimate D2E/DX2                !
 ! D25   D(2,5,7,9)              0.0            estimate D2E/DX2                !
 ! D26   D(2,5,10,6)           180.0            estimate D2E/DX2                !
 ! D27   D(2,5,10,8)           180.0            estimate D2E/DX2                !
 ! D28   D(2,5,10,12)            0.0            estimate D2E/DX2                !
 ! D29   D(3,5,10,6)             0.0            estimate D2E/DX2                !
 ! D30   D(3,5,10,8)             0.0            estimate D2E/DX2                !
 ! D31   D(3,5,10,12)          180.0            estimate D2E/DX2                !
 ! D32   D(4,6,8,11)             0.0            estimate D2E/DX2                !
 ! D33   D(3,6,10,5)             0.0            estimate D2E/DX2                !
 ! D34   D(3,6,10,7)             0.0            estimate D2E/DX2                !
 ! D35   D(3,6,10,12)          180.0            estimate D2E/DX2                !
 ! D36   D(4,6,10,5)           180.0            estimate D2E/DX2                !
 ! D37   D(4,6,10,7)           180.0            estimate D2E/DX2                !
 ! D38   D(4,6,10,12)            0.0            estimate D2E/DX2                !
 ! D39   D(3,7,10,6)             0.0            estimate D2E/DX2                !
 ! D40   D(3,7,10,8)             0.0            estimate D2E/DX2                !
 ! D41   D(3,7,10,12)          180.0            estimate D2E/DX2                !
 ! D42   D(9,7,10,6)           180.0            estimate D2E/DX2                !
 ! D43   D(9,7,10,8)           180.0            estimate D2E/DX2                !
 ! D44   D(9,7,10,12)            0.0            estimate D2E/DX2                !
 ! D45   D(3,8,10,5)             0.0            estimate D2E/DX2                !
 ! D46   D(3,8,10,7)             0.0            estimate D2E/DX2                !
 ! D47   D(3,8,10,12)          180.0            estimate D2E/DX2                !
 ! D48   D(11,8,10,5)          180.0            estimate D2E/DX2                !
 ! D49   D(11,8,10,7)          180.0            estimate D2E/DX2                !
 ! D50   D(11,8,10,12)           0.0            estimate D2E/DX2                !
 --------------------------------------------------------------------------------
 Number of steps in this run=    100 maximum allowed number of steps=    100.
 GradGradGradGradGradGradGradGradGradGradGradGradGradGradGradGradGradGrad

                    Distance matrix (angstroms):
                    1          2          3          4          5
     1  H    0.000000
     2  H    2.236068   0.000000
     3  C    1.000000   2.000000   0.000000
     4  H    2.236068   4.000000   2.000000   0.000000
     5  C    1.802776   1.118034   1.118034   3.041381   0.000000
     6  C    1.802776   3.041381   1.118034   1.118034   2.000000
     7  C    2.692582   1.802776   1.802776   3.354102   1.000000
     8  C    2.692582   3.354102   1.802776   1.802776   2.236068
     9  H    3.605551   2.000000   2.828427   4.472136   1.802776
    10  C    3.000000   2.828427   2.000000   2.828427   1.802776
    11  H    3.605551   4.472136   2.828427   2.000000   3.354102
    12  H    4.000000   3.605551   3.000000   3.605551   2.692582
                    6          7          8          9         10
     6  C    0.000000
     7  C    2.236068   0.000000
     8  C    1.000000   2.000000   0.000000
     9  H    3.354102   1.118034   3.041381   0.000000
    10  C    1.802776   1.118034   1.118034   2.000000   0.000000
    11  H    1.802776   3.041381   1.118034   4.000000   2.000000
    12  H    2.692582   1.802776   1.802776   2.236068   1.000000
                   11         12
    11  H    0.000000
    12  H    2.236068   0.000000
 Framework group  D2H[C2"(HC.CH),SG(C4H4)]
 Deg. of freedom     6
                         Standard orientation:                         
 ---------------------------------------------------------------------
 Center     Atomic      Atomic             Coordinates (Angstroms)
 Number     Number       Type             X           Y           Z
 ---------------------------------------------------------------------
      1          1           0        0.000000   -0.000000    2.000000
      2          1           0        0.000000    2.000000    1.000000
      3          6           0        0.000000   -0.000000    1.000000
      4          1           0       -0.000000   -2.000000    1.000000
      5          6           0        0.000000    1.000000    0.500000
      6          6           0       -0.000000   -1.000000    0.500000
      7          6           0        0.000000    1.000000   -0.500000
      8          6           0       -0.000000   -1.000000   -0.500000
      9          1           0        0.000000    2.000000   -1.000000
     10          6           0        0.000000    0.000000   -1.000000
     11          1           0       -0.000000   -2.000000   -1.000000
     12          1           0        0.000000    0.000000   -2.000000
 ---------------------------------------------------------------------
 Rotational constants (GHZ):          10.5081726           7.8811295           4.5035026
   414 basis functions,   594 primitive gaussians,   480 cartesian basis functions
    21 alpha electrons       21 beta electrons
       nuclear repulsion energy       254.2729728337 Hartrees.
 NAtoms=   12 NActive=   12 NUniq=    4 SFac= 4.00D+00 NAtFMM=   60 NAOKFM=F Big=F
 ExpMin= 2.53D-02 ExpMax= 8.24D+03 ExpMxC= 2.81D+02 IAcc=3 IRadAn=         5 AccDes= 0.00D+00
 Harris functional with IExCor=  402 and IRadAn=       5 diagonalized for initial guess.
 HarFok:  IExCor=  402 AccDes= 0.00D+00 IRadAn=         5 IDoV= 1 UseB2=F ITyADJ=14
 ICtDFT=  3500011 ScaDFX=  1.000000  1.000000  1.000000  1.000000
 FoFCou: FMM=F IPFlag=           0 FMFlag=      100000 FMFlg1=           0
         NFxFlg=           0 DoJE=T BraDBF=F KetDBF=T FulRan=T
         wScrn=  0.000000 ICntrl=       500 IOpCl=  0 I1Cent=   200000004 NGrid=           0
         NMat0=    1 NMatS0=      1 NMatT0=    0 NMatD0=    1 NMtDS0=    0 NMtDT0=    0
 Petite list used in FoFCou.
 Initial guess orbital symmetries:
       Occupied  (AG) (B2U) (B1U) (B3G) (AG) (B1U) (AG) (B2U) (B1U)
                 (AG) (B3G) (B2U) (AG) (B3U) (B2U) (B1U) (B1G)
                 (AG) (B1U) (B2G) (B3G)
       Virtual   (B3U) (AU) (AG) (B2U) (B1U) (AG) (B3U) (AG) (B3G)
                 (B2U) (B1G) (AG) (B2G) (B1U) (B1U) (B2U) (AG)
                 (B3G) (B2U) (B1U) (B3U) (AU) (B2G) (AG) (B1U)
                 (B3G) (AG) (B3U) (B2U) (B2G) (B1U) (B2U) (AG)
                 (B1G) (B2U) (B3G) (B1U) (B2G) (B3G) (AG) (AG)
                 (AG) (B1U) (B3G) (B3U) (B3U) (AU) (B2U) (B1U)
                 (B1G) (AG) (B1G) (B2G) (B2U) (B3U) (B1U) (AG)
                 (B2G) (B2U) (AU) (B1U) (B3U) (B2U) (B3G) (AG)
                 (B1U) (B3G) (AG) (B3G) (AG) (B2U) (B1U) (B3G)
                 (B3U) (B1G) (B1U) (B2G) (B2U) (AG) (B2G) (AU)
                 (B2U) (B3G) (B1U) (AG) (B1G) (AG) (B1U) (B2G)
                 (B2U) (B3U) (AG) (B3U) (B2U) (AU) (AU) (B3G) (B1G)
                 (B1U) (AG) (B2U) (B2G) (AG) (B3G) (B1U) (AG) (B3G)
                 (AU) (B3U) (B3U) (B1U) (B2U) (B3G) (B1G) (AG)
                 (B2G) (B1G) (B1U) (B1U) (B3G) (B2U) (B3U) (B2U)
                 (AU) (B2G) (AG) (B3G) (B1G) (AG) (B1U) (B2U) (B2G)
                 (B1G) (AG) (B1U) (B3G) (B1U) (B2U) (B2G) (B3G)
                 (B1U) (AU) (AG) (AG) (B3U) (B2U) (B1U) (AG) (B3G)
                 (B3U) (B2U) (AG) (B3U) (B3G) (AU) (AG) (B2U) (B3G)
                 (B2G) (AU) (B1U) (B1G) (B2G) (B3U) (B2U) (B1U)
                 (AG) (B3G) (B1U) (B2U) (AU) (B3U) (B1G) (B3G)
                 (B1G) (AG) (B2G) (B2U) (B1U) (B1U) (AG) (B1G)
                 (B2G) (B3G) (B1U) (B2U) (B3U) (AG) (B2G) (AU)
                 (B2U) (B3G) (AU) (B1U) (AU) (AG) (B3U) (B3U) (B1U)
                 (B2U) (B1U) (B3G) (AG) (B1G) (B3G) (B2G) (B2U)
                 (B2U) (B2G) (AG) (B3U) (AG) (B3G) (B2G) (B1G)
                 (B3G) (B3U) (AU) (B1U) (B2U) (B2G) (AG) (AG) (B3G)
                 (B2U) (B1U) (B1U) (B1U) (B3G) (B3U) (AG) (AU)
                 (B1U) (B3G) (B2U) (B1G) (AG) (B2U) (B1U) (B1G)
                 (B2G) (B3U) (B3G) (AG) (B2U) (AU) (B1U) (B1G)
                 (B3U) (B2G) (B1G) (AG) (B2U) (B3G) (B1U) (B2U)
                 (AU) (B3U) (B1G) (AG) (B2G) (B3G) (AG) (AG) (B1U)
                 (B2U) (B3G) (B3U) (AU) (B1U) (B2G) (B1G) (B3U)
                 (B1U) (AG) (B2G) (B1U) (B2U) (AU) (AG) (B2U) (AG)
                 (B3G) (B3G) (B1U) (B3U) (AG) (B2U) (B2U) (B1G)
                 (B3G) (B2G) (B3U) (B1U) (AG) (B3G) (B1G) (B2G)
                 (B2U) (AU) (B1U) (AU) (AG) (B3G) (B2G) (B3U) (B1U)
                 (AU) (B1G) (B1U) (B3G) (AG) (B3U) (B2U) (AG) (B2G)
                 (B1U) (B3G) (AU) (B2U) (B3U) (B1G) (B2G) (B3U)
                 (B1G) (B1U) (B2U) (B3G) (B2G) (AG) (B3G) (B1U)
                 (AG) (AU) (AG) (B2U) (B2G) (B1U) (B3U) (AG) (AU)
                 (B3G) (B2U) (B1G) (B1U) (AU) (B3G) (B1U) (AG)
                 (B2U) (B3G) (B2U) (B2G) (B3U) (AG) (B2G) (B3G)
                 (B1U) (B2U) (B1U) (B1U) (AU) (AG) (B2G) (B3G)
                 (B2U) (AG) (B1U) (AG) (B2U) (B1U) (B3G) (B3G)
                 (AG) (B3G) (B2U) (B1U) (B1U) (B3G) (AG) (AG) (B2U)
                 (B1U) (B3G) (B1U)
 The electronic state of the initial guess is 1-AG.
 SCF Done:  E(RB3LYP) =  -231.226882018     A.U. after   10 cycles
            NFock= 10  Conv=0.62D-08     -V/T= 1.9660

 **********************************************************************

            Population analysis using the SCF density.

 **********************************************************************

 Orbital symmetries:
       Occupied  (AG) (B2U) (B1U) (AG) (B3G) (B1U) (AG) (B2U) (B1U)
                 (AG) (B3G) (AG) (B2U) (B3U) (B2U) (B1U) (B1U)
                 (B1G) (B3G) (AG) (B2G)
       Virtual   (AG) (B2U) (B1U) (AG) (B3U) (B3G) (AG) (B3U) (B1U)
                 (B1G) (B2U) (B2G) (AU) (AG) (B1U) (B2U) (AG) (B2U)
                 (B3G) (B1U) (B3U) (AU) (B3G) (AG) (B2G) (B1U)
                 (AG) (B3U) (B2U) (B1U) (B2U) (AG) (B1G) (B3G)
                 (B2G) (B2U) (AG) (B1U) (B3G) (AG) (B3G) (B1U)
                 (B2G) (AG) (B3U) (B1G) (B2U) (AU) (B1U) (AG) (B2G)
                 (B3U) (B1G) (AU) (B2U) (B1U) (B3U) (B2U) (AG)
                 (B1U) (B3G) (B2U) (B3U) (B1U) (B2G) (B3G) (AG)
                 (AG) (B3G) (B1U) (B2U) (AG) (B3U) (B2G) (B3G)
                 (B1G) (AU) (B3G) (B2G) (B1U) (B2U) (AG) (B2U)
                 (AG) (B1U) (B1U) (B2U) (B1G) (AG) (B2G) (AU) (B3U)
                 (B3G) (AG) (AU) (B2U) (B3U) (B2U) (B1U) (AG) (B1U)
                 (B3G) (B1G) (B2G) (AG) (AU) (B3U) (AG) (B3G) (B3U)
                 (B1U) (B2U) (B1G) (B1G) (B2G) (B3G) (AG) (B1U)
                 (B2G) (B2U) (AU) (B3U) (B1U) (B3G) (B2U) (AG)
                 (B1U) (B3G) (B2G) (B1G) (AG) (B2U) (B1U) (AG)
                 (B3G) (B1G) (B2U) (B1U) (B2G) (B1U) (AG) (B2U)
                 (AU) (B3G) (B3U) (B3G) (AG) (B2U) (AG) (B3U) (B3G)
                 (AU) (AG) (B3U) (B1U) (B2G) (AU) (B2U) (B1U) (B1G)
                 (B2G) (AG) (B3G) (B1U) (B3U) (B2U) (B2U) (AG)
                 (B1U) (B3G) (AU) (B3U) (B1G) (AG) (B2U) (B1G)
                 (B2G) (B3G) (B1U) (AG) (B1U) (B3G) (B2G) (AU)
                 (B3U) (B1U) (B1G) (B2G) (B2U) (AG) (B3G) (AU)
                 (B2U) (B1U) (AG) (AU) (B3U) (B3U) (B2U) (B1U)
                 (B3G) (B2G) (B1G) (B3G) (AG) (B1U) (B2U) (B2U)
                 (B2G) (AG) (B3G) (B2G) (AG) (B3U) (B1G) (B3G)
                 (B1U) (AU) (B3U) (B2G) (AG) (B1U) (B3G) (B2U)
                 (AG) (B2U) (B1U) (B1U) (B3G) (AU) (B3G) (B3U)
                 (AG) (B1U) (B2U) (AG) (B1G) (B1U) (B2U) (B1G)
                 (B2G) (B3U) (B3G) (AG) (AU) (B2U) (B1U) (B3U)
                 (B1G) (B2G) (B1G) (AG) (B2U) (B3G) (AG) (B1U)
                 (B3G) (B2U) (B1G) (AG) (B2G) (B3U) (B1U) (AU)
                 (B2U) (B3G) (AG) (AU) (B3U) (B1U) (B2G) (B1G)
                 (B1U) (AG) (B3U) (AU) (B1U) (B2U) (AG) (B2G) (B2U)
                 (AG) (B1U) (B3G) (B3G) (B3U) (B1G) (AG) (B2U)
                 (B2U) (B3G) (B3U) (B2G) (B1U) (AG) (B2G) (AU)
                 (B1G) (B3G) (B2U) (AU) (B1U) (AG) (B3G) (B1U)
                 (B2G) (B3U) (AU) (AG) (B3U) (B1U) (B1G) (B3G)
                 (B2U) (AG) (AU) (B2G) (B1U) (B3G) (B3U) (B2U)
                 (B1G) (B2G) (B3U) (B1G) (B2G) (B1U) (B3G) (B2U)
                 (AG) (AG) (B1U) (AU) (B2U) (B3G) (B2G) (AG) (B1U)
                 (AG) (B3G) (B3U) (AU) (B1U) (B1G) (B2U) (AU) (B3G)
                 (AG) (B1U) (B2U) (B3G) (B2U) (B3U) (AG) (B2G)
                 (B2G) (B3G) (B1U) (B2U) (B1U) (B1U) (AU) (AG)
                 (B2G) (B2U) (B3G) (AG) (B1U) (AG) (B1U) (B2U)
                 (B3G) (B3G) (AG) (B3G) (B2U) (B1U) (B1U) (B3G)
                 (AG) (AG) (B2U) (B1U) (B3G) (B1U)
 The electronic state is 1-AG.
 Alpha  occ. eigenvalues --  -10.09892 -10.09793 -10.08874 -10.08496 -10.08394
 Alpha  occ. eigenvalues --  -10.08121  -1.06751  -0.85300  -0.78480  -0.67285
 Alpha  occ. eigenvalues --   -0.62481  -0.62157  -0.56005  -0.52956  -0.46924
 Alpha  occ. eigenvalues --   -0.39545  -0.37122  -0.35200  -0.30707  -0.30259
 Alpha  occ. eigenvalues --   -0.27984
 Alpha virt. eigenvalues --   -0.01612   0.00074   0.00931   0.02946   0.03094
 Alpha virt. eigenvalues --    0.03196   0.03992   0.04162   0.05875   0.06107
 Alpha virt. eigenvalues --    0.06521   0.06600   0.06950   0.07493   0.07627
 Alpha virt. eigenvalues --    0.08889   0.09523   0.09949   0.10070   0.10777
 Alpha virt. eigenvalues --    0.11711   0.12942   0.13331   0.13577   0.14088
 Alpha virt. eigenvalues --    0.14424   0.15761   0.17863   0.19200   0.20463
 Alpha virt. eigenvalues --    0.20721   0.21842   0.21944   0.23002   0.23160
 Alpha virt. eigenvalues --    0.23442   0.24180   0.24660   0.25662   0.27114
 Alpha virt. eigenvalues --    0.28208   0.29039   0.29172   0.29686   0.30973
 Alpha virt. eigenvalues --    0.31214   0.31683   0.31711   0.31822   0.32670
 Alpha virt. eigenvalues --    0.33551   0.34240   0.35138   0.38006   0.38103
 Alpha virt. eigenvalues --    0.38478   0.39341   0.40151   0.40664   0.41076
 Alpha virt. eigenvalues --    0.41278   0.41386   0.41440   0.43106   0.43973
 Alpha virt. eigenvalues --    0.44403   0.45232   0.47809   0.47822   0.48223
 Alpha virt. eigenvalues --    0.48498   0.49092   0.49105   0.50893   0.52684
 Alpha virt. eigenvalues --    0.53461   0.55001   0.56598   0.56758   0.56984
 Alpha virt. eigenvalues --    0.58501   0.58823   0.59876   0.62308   0.62316
 Alpha virt. eigenvalues --    0.62965   0.64284   0.64835   0.66066   0.66215
 Alpha virt. eigenvalues --    0.67322   0.71771   0.72876   0.73002   0.74205
 Alpha virt. eigenvalues --    0.75201   0.75974   0.76729   0.77571   0.78225
 Alpha virt. eigenvalues --    0.78531   0.79780   0.79927   0.81025   0.81211
 Alpha virt. eigenvalues --    0.82221   0.83608   0.84356   0.84819   0.86561
 Alpha virt. eigenvalues --    0.88281   0.89544   0.89827   0.90706   0.90889
 Alpha virt. eigenvalues --    0.92224   0.92581   0.93005   0.96446   0.96511
 Alpha virt. eigenvalues --    0.96588   0.96600   0.97487   0.97810   0.99654
 Alpha virt. eigenvalues --    0.99781   1.00441   1.00631   1.01735   1.02981
 Alpha virt. eigenvalues --    1.02998   1.05658   1.06153   1.06953   1.06984
 Alpha virt. eigenvalues --    1.08565   1.12631   1.13147   1.13554   1.17229
 Alpha virt. eigenvalues --    1.17403   1.17933   1.18417   1.20135   1.20921
 Alpha virt. eigenvalues --    1.21149   1.21800   1.25939   1.26701   1.27415
 Alpha virt. eigenvalues --    1.31795   1.32575   1.33346   1.34199   1.36295
 Alpha virt. eigenvalues --    1.38857   1.39584   1.39888   1.40740   1.42800
 Alpha virt. eigenvalues --    1.42839   1.43610   1.46119   1.46494   1.48217
 Alpha virt. eigenvalues --    1.48694   1.53807   1.54658   1.55629   1.55938
 Alpha virt. eigenvalues --    1.56082   1.58047   1.61844   1.64242   1.65476
 Alpha virt. eigenvalues --    1.65839   1.67138   1.67351   1.67574   1.76310
 Alpha virt. eigenvalues --    1.77884   1.77894   1.79529   1.80845   1.81719
 Alpha virt. eigenvalues --    1.81867   1.81943   1.84385   1.85404   1.86025
 Alpha virt. eigenvalues --    1.86374   1.87231   1.88286   1.92077   1.94611
 Alpha virt. eigenvalues --    1.94908   1.98487   1.99016   1.99595   2.00200
 Alpha virt. eigenvalues --    2.00495   2.01638   2.01870   2.02953   2.04865
 Alpha virt. eigenvalues --    2.05095   2.06576   2.07384   2.08987   2.14565
 Alpha virt. eigenvalues --    2.15560   2.17150   2.17427   2.17516   2.19062
 Alpha virt. eigenvalues --    2.30043   2.32551   2.33975   2.35899   2.41664
 Alpha virt. eigenvalues --    2.42530   2.46374   2.48881   2.48959   2.48984
 Alpha virt. eigenvalues --    2.51142   2.54021   2.61655   2.63986   2.78405
 Alpha virt. eigenvalues --    2.78470   2.80645   2.82689   2.91358   2.94006
 Alpha virt. eigenvalues --    2.94931   2.96516   2.96963   2.97383   3.04961
 Alpha virt. eigenvalues --    3.05418   3.06169   3.08153   3.08851   3.10935
 Alpha virt. eigenvalues --    3.11530   3.13054   3.19236   3.22662   3.24278
 Alpha virt. eigenvalues --    3.24680   3.26863   3.31627   3.34720   3.39028
 Alpha virt. eigenvalues --    3.40799   3.41657   3.44450   3.45410   3.46910
 Alpha virt. eigenvalues --    3.47092   3.47310   3.47422   3.47961   3.49238
 Alpha virt. eigenvalues --    3.49870   3.50393   3.56077   3.56464   3.56586
 Alpha virt. eigenvalues --    3.60458   3.63508   3.63520   3.63687   3.68017
 Alpha virt. eigenvalues --    3.68746   3.71185   3.73009   3.75039   3.75381
 Alpha virt. eigenvalues --    3.75752   3.79873   3.81088   3.82172   3.82344
 Alpha virt. eigenvalues --    3.86470   3.94139   3.95266   3.96247   3.97261
 Alpha virt. eigenvalues --    4.02487   4.03467   4.04281   4.07949   4.10233
 Alpha virt. eigenvalues --    4.12398   4.13785   4.14831   4.18849   4.20909
 Alpha virt. eigenvalues --    4.23314   4.24880   4.27013   4.31959   4.35502
 Alpha virt. eigenvalues --    4.36446   4.36965   4.49581   4.53141   4.53604
 Alpha virt. eigenvalues --    4.53983   4.55582   4.57768   4.61000   4.66834
 Alpha virt. eigenvalues --    4.69347   4.71658   4.73466   4.74455   4.75775
 Alpha virt. eigenvalues --    4.78712   4.79070   4.85680   4.90745   4.92011
 Alpha virt. eigenvalues --    4.94452   4.94698   4.98636   4.99496   4.99691
 Alpha virt. eigenvalues --    5.06246   5.06985   5.11434   5.12318   5.13785
 Alpha virt. eigenvalues --    5.20094   5.21961   5.23936   5.29847   5.31366
 Alpha virt. eigenvalues --    5.31395   5.35055   5.43997   5.48012   5.48261
 Alpha virt. eigenvalues --    5.53729   5.54931   5.62259   5.64750   5.68298
 Alpha virt. eigenvalues --    5.77250   5.77813   5.80937   5.85068   5.85133
 Alpha virt. eigenvalues --    5.90788   5.94804   6.01311   6.11827   6.13683
 Alpha virt. eigenvalues --    6.20037   6.27160   6.29804   6.31036   6.37516
 Alpha virt. eigenvalues --    6.39059   6.62182   6.63926   6.76374   7.07413
 Alpha virt. eigenvalues --    7.09192   7.12202   7.31145   7.33548   7.41540
 Alpha virt. eigenvalues --    7.55740   7.59436   7.90181   8.16628  18.58699
 Alpha virt. eigenvalues --   23.33153  24.00555  24.18262  24.85593  25.06319
          Condensed to atoms (all electrons):
 Mulliken charges:
               1
     1  H    0.444787
     2  H    0.551968
     3  C    0.499179
     4  H    0.551968
     5  C   -1.023951
     6  C   -1.023951
     7  C   -1.023951
     8  C   -1.023951
     9  H    0.551968
    10  C    0.499179
    11  H    0.551968
    12  H    0.444787
 Sum of Mulliken charges =  -0.00000
 Mulliken charges with hydrogens summed into heavy atoms:
               1
     3  C    0.943966
     5  C   -0.471983
     6  C   -0.471983
     7  C   -0.471983
     8  C   -0.471983
    10  C    0.943966
 Electronic spatial extent (au):  <R**2>=            325.3895
 Charge=              0.0000 electrons
 Dipole moment (field-independent basis, Debye):
    X=              0.0000    Y=             -0.0000    Z=             -0.0000  Tot=              0.0000
 Calling FoFJK, ICntrl=      2127 FMM=F ISym2X=1 I1Cent= 0 IOpClX= 0 NMat=1 NMatS=1 NMatT=0.

 GradGradGradGradGradGradGradGradGradGradGradGradGradGradGradGradGradGrad
 FormGI is forming the generalized inverse of G from B-inverse, IUseBI=4.
 Internal  Forces:  Max     0.460426410 RMS     0.122051210
 Step number   1 out of a maximum of  100
 All quantities printed in internal units (Hartrees-Bohrs-Radians)
 Mixed Optimization -- RFO/linear search
 Second derivative matrix not updated -- first step.
 ITU=  0
     Eigenvalues ---    0.01258   0.01634   0.01782   0.01782   0.01782
     Eigenvalues ---    0.02627   0.03314   0.03659   0.04719   0.16000
     Eigenvalues ---    0.16000   0.16000   0.16000   0.16000   0.16000
     Eigenvalues ---    0.16686   0.18334   0.21742   0.31764   0.31764
     Eigenvalues ---    0.31764   0.31764   0.47688   0.47688   0.83030
     Eigenvalues ---    0.88592   0.97677   1.28231   2.18518   2.18596
 Linear search not attempted -- first point.
 Maximum step size (   0.300) exceeded in Quadratic search.
    -- Step size scaled by   0.440
 Iteration  1 RMS(Cart)=  0.02676108 RMS(Int)=  0.00010174
 Iteration  2 RMS(Cart)=  0.00005244 RMS(Int)=  0.00004483
 Iteration  3 RMS(Cart)=  0.00000001 RMS(Int)=  0.00004483
 ClnCor:  largest displacement from symmetrization is 3.45D-14 for atom     9.
 Variable       Old X    -DE/DX   Delta X   Delta X   Delta X     New X
                                 (Linear)    (Quad)   (Total)
    R1        1.88973   0.08464   0.00000   0.02920   0.02920   1.91892
    R2        2.11278  -0.00689   0.00000  -0.00271  -0.00271   2.11006
    R3        2.11278   0.16104   0.00000   0.06285   0.06286   2.17564
    R4        2.11278   0.16104   0.00000   0.06285   0.06286   2.17564
    R5        3.40675   0.45930   0.00000   0.11836   0.11831   3.52506
    R6        3.40675   0.45930   0.00000   0.11836   0.11831   3.52506
    R7        2.11278  -0.00689   0.00000  -0.00271  -0.00271   2.11006
    R8        1.88973   0.46043   0.00000   0.08557   0.08574   1.97546
    R9        3.40675   0.45930   0.00000   0.11836   0.11831   3.52506
   R10        1.88973   0.46043   0.00000   0.08557   0.08574   1.97546
   R11        3.40675   0.45930   0.00000   0.11836   0.11831   3.52506
   R12        2.11278  -0.00689   0.00000  -0.00271  -0.00271   2.11006
   R13        2.11278   0.16104   0.00000   0.06285   0.06286   2.17564
   R14        2.11278   0.16104   0.00000   0.06285   0.06286   2.17564
   R15        2.11278  -0.00689   0.00000  -0.00271  -0.00271   2.11006
   R16        1.88973   0.08464   0.00000   0.02920   0.02920   1.91892
    A1        2.03444  -0.06070   0.00000  -0.00707  -0.00700   2.02744
    A2        2.03444  -0.06070   0.00000  -0.00707  -0.00700   2.02744
    A3        2.55359   0.01883   0.00000   0.00097   0.00090   2.55449
    A4        2.55359   0.01883   0.00000   0.00097   0.00090   2.55449
    A5        2.21430   0.12139   0.00000   0.01413   0.01400   2.22830
    A6        1.69515   0.04186   0.00000   0.00609   0.00610   1.70125
    A7        1.69515   0.04186   0.00000   0.00609   0.00610   1.70125
    A8        1.17601  -0.03767   0.00000  -0.00195  -0.00180   1.17420
    A9        2.21430   0.01689   0.00000  -0.00355  -0.00357   2.21072
   A10        2.03444   0.04381   0.00000   0.01062   0.01057   2.04502
   A11        2.62245   0.02498   0.00000   0.00964   0.00967   2.63212
   A12        1.44644  -0.04186   0.00000  -0.00609  -0.00610   1.44034
   A13        2.21430   0.01689   0.00000  -0.00355  -0.00357   2.21072
   A14        1.44644  -0.04186   0.00000  -0.00609  -0.00610   1.44034
   A15        2.03444   0.04381   0.00000   0.01062   0.01057   2.04502
   A16        2.62245   0.02498   0.00000   0.00964   0.00967   2.63212
   A17        2.62245   0.02498   0.00000   0.00964   0.00967   2.63212
   A18        1.44644  -0.04186   0.00000  -0.00609  -0.00610   1.44034
   A19        2.03444   0.04381   0.00000   0.01062   0.01057   2.04502
   A20        2.21430   0.01689   0.00000  -0.00355  -0.00357   2.21072
   A21        1.44644  -0.04186   0.00000  -0.00609  -0.00610   1.44034
   A22        2.62245   0.02498   0.00000   0.00964   0.00967   2.63212
   A23        2.03444   0.04381   0.00000   0.01062   0.01057   2.04502
   A24        2.21430   0.01689   0.00000  -0.00355  -0.00357   2.21072
   A25        1.17601  -0.03767   0.00000  -0.00195  -0.00180   1.17420
   A26        1.69515   0.04186   0.00000   0.00609   0.00610   1.70125
   A27        2.55359   0.01883   0.00000   0.00097   0.00090   2.55449
   A28        1.69515   0.04186   0.00000   0.00609   0.00610   1.70125
   A29        2.55359   0.01883   0.00000   0.00097   0.00090   2.55449
   A30        2.21430   0.12139   0.00000   0.01413   0.01400   2.22830
   A31        2.03444  -0.06070   0.00000  -0.00707  -0.00700   2.02744
   A32        2.03444  -0.06070   0.00000  -0.00707  -0.00700   2.02744
    D1        0.00000  -0.00000   0.00000  -0.00000  -0.00000   0.00000
    D2        3.14159  -0.00000   0.00000  -0.00000   0.00000   3.14159
    D3        3.14159   0.00000   0.00000   0.00000   0.00000   3.14159
    D4       -0.00000   0.00000   0.00000   0.00000   0.00000   0.00000
    D5        3.14159   0.00000   0.00000   0.00000   0.00000   3.14159
    D6       -0.00000   0.00000   0.00000   0.00000   0.00000   0.00000
    D7        0.00000  -0.00000   0.00000   0.00000   0.00000   0.00000
    D8        3.14159   0.00000   0.00000   0.00000   0.00000   3.14159
    D9        3.14159  -0.00000   0.00000  -0.00000   0.00000   3.14159
   D10        0.00000  -0.00000   0.00000  -0.00000   0.00000   0.00000
   D11        3.14159  -0.00000   0.00000  -0.00000   0.00000   3.14159
   D12        0.00000  -0.00000   0.00000  -0.00000   0.00000   0.00000
   D13       -0.00000  -0.00000   0.00000  -0.00000   0.00000   0.00000
   D14        3.14159  -0.00000   0.00000  -0.00000   0.00000   3.14159
   D15        3.14159   0.00000   0.00000   0.00000   0.00000   3.14159
   D16       -0.00000   0.00000   0.00000   0.00000   0.00000   0.00000
   D17        3.14159   0.00000   0.00000   0.00000   0.00000   3.14159
   D18       -0.00000   0.00000   0.00000   0.00000   0.00000   0.00000
   D19        3.14159   0.00000   0.00000   0.00000   0.00000   3.14159
   D20        0.00000   0.00000   0.00000   0.00000   0.00000   0.00000
   D21        0.00000  -0.00000   0.00000  -0.00000   0.00000   0.00000
   D22        3.14159  -0.00000   0.00000  -0.00000   0.00000   3.14159
   D23        0.00000  -0.00000   0.00000  -0.00000   0.00000   0.00000
   D24        3.14159  -0.00000   0.00000  -0.00000   0.00000   3.14159
   D25        0.00000   0.00000   0.00000   0.00000   0.00000   0.00000
   D26        3.14159   0.00000   0.00000   0.00000   0.00000   3.14159
   D27        3.14159  -0.00000   0.00000  -0.00000   0.00000   3.14159
   D28       -0.00000   0.00000   0.00000   0.00000   0.00000   0.00000
   D29        0.00000  -0.00000   0.00000  -0.00000   0.00000   0.00000
   D30        0.00000  -0.00000   0.00000  -0.00000   0.00000   0.00000
   D31        3.14159  -0.00000   0.00000   0.00000   0.00000   3.14159
   D32        0.00000   0.00000   0.00000   0.00000   0.00000   0.00000
   D33       -0.00000   0.00000   0.00000   0.00000   0.00000   0.00000
   D34       -0.00000   0.00000   0.00000   0.00000   0.00000   0.00000
   D35        3.14159   0.00000   0.00000  -0.00000   0.00000   3.14159
   D36        3.14159   0.00000   0.00000   0.00000   0.00000   3.14159
   D37        3.14159   0.00000   0.00000   0.00000   0.00000   3.14159
   D38        0.00000   0.00000   0.00000  -0.00000   0.00000   0.00000
   D39        0.00000  -0.00000   0.00000  -0.00000   0.00000   0.00000
   D40        0.00000  -0.00000   0.00000  -0.00000   0.00000   0.00000
   D41        3.14159  -0.00000   0.00000   0.00000   0.00000   3.14159
   D42        3.14159  -0.00000   0.00000  -0.00000   0.00000   3.14159
   D43        3.14159  -0.00000   0.00000  -0.00000   0.00000   3.14159
   D44        0.00000  -0.00000   0.00000  -0.00000   0.00000   0.00000
   D45       -0.00000   0.00000   0.00000   0.00000   0.00000   0.00000
   D46       -0.00000   0.00000   0.00000   0.00000   0.00000   0.00000
   D47        3.14159  -0.00000   0.00000  -0.00000   0.00000   3.14159
   D48        3.14159   0.00000   0.00000   0.00000   0.00000   3.14159
   D49        3.14159   0.00000   0.00000   0.00000   0.00000   3.14159
   D50        0.00000  -0.00000   0.00000  -0.00000  -0.00000   0.00000
         Item               Value     Threshold  Converged?
 Maximum Force            0.460426     0.000450     NO 
 RMS     Force            0.122051     0.000300     NO 
 Maximum Displacement     0.086529     0.001800     NO 
 RMS     Displacement     0.026748     0.001200     NO 
 GradGradGradGradGradGradGradGradGradGradGradGradGradGradGradGradGradGrad

                    Distance matrix (angstroms):
                    1          2          3          4          5
     1  H    0.000000
     2  H    2.265869   0.000000
     3  C    1.015450   2.026712   0.000000
     4  H    2.265869   4.053421   2.026712   0.000000
     5  C    1.840549   1.116598   1.151297   3.102231   0.000000
     6  C    1.840549   3.102231   1.151297   1.116598   2.066661
     7  C    2.768543   1.845436   1.865384   3.432591   1.045370
     8  C    2.768543   3.432591   1.865384   1.845436   2.316006
     9  H    3.685631   2.065147   2.891914   4.549182   1.845436
    10  C    3.076129   2.891914   2.060680   2.891914   1.865384
    11  H    3.685631   4.549182   2.891914   2.065147   3.432591
    12  H    4.091579   3.685631   3.076129   3.685631   2.768543
                    6          7          8          9         10
     6  C    0.000000
     7  C    2.316006   0.000000
     8  C    1.045370   2.066661   0.000000
     9  H    3.432591   1.116598   3.102231   0.000000
    10  C    1.865384   1.151297   1.151297   2.026712   0.000000
    11  H    1.845436   3.102231   1.116598   4.053421   2.026712
    12  H    2.768543   1.840549   1.840549   2.265869   1.015450
                   11         12
    11  H    0.000000
    12  H    2.265869   0.000000
 Framework group  D2H[C2"(HC.CH),SG(C4H4)]
 Deg. of freedom     6
                   Standard orientation:
 ---------------------------------------------------------------------
 Center     Atomic                     Coordinates (Angstroms)
 Number     Number                        X           Y           Z
 ---------------------------------------------------------------------
      1          1                    0.000000    0.000000    2.045789
      2          1                    0.000000    2.026710    1.032574
      3          6                    0.000000    0.000000    1.030340
      4          1                    0.000000   -2.026710    1.032574
      5          6                    0.000000    1.033330    0.522685
      6          6                    0.000000   -1.033330    0.522685
      7          6                    0.000000    1.033330   -0.522685
      8          6                    0.000000   -1.033330   -0.522685
      9          1                    0.000000    2.026710   -1.032574
     10          6                    0.000000    0.000000   -1.030340
     11          1                    0.000000   -2.026710   -1.032574
     12          1                    0.000000    0.000000   -2.045789
 ---------------------------------------------------------------------
 Rotational constants (GHZ):           9.8464167           7.4526669           4.2419625
   414 basis functions,   594 primitive gaussians,   480 cartesian basis functions
    21 alpha electrons       21 beta electrons
       nuclear repulsion energy       246.7740938864 Hartrees.
 NAtoms=   12 NActive=   12 NUniq=    4 SFac= 4.00D+00 NAtFMM=   60 NAOKFM=F Big=F
 Initial guess from the checkpoint file:  "optimization-gaussian.chk"
 B after Tr=     0.000000    0.000000   -0.000000
         Rot=    1.000000   -0.000000    0.000000   -0.000000 Ang=   0.00 deg.
 Initial guess orbital symmetries:
       Occupied  (AG) (B2U) (B1U) (AG) (B3G) (B1U) (AG) (B2U) (B1U)
                 (AG) (B3G) (AG) (B2U) (B3U) (B2U) (B1U) (B1U)
                 (B1G) (B3G) (AG) (B2G)
       Virtual   (AG) (B2U) (B1U) (AG) (B3U) (B3G) (AG) (B3U) (B1U)
                 (B1G) (B2U) (B2G) (AU) (AG) (B1U) (B2U) (AG) (B2U)
                 (B3G) (B1U) (B3U) (AU) (B3G) (AG) (B2G) (B1U)
                 (AG) (B3U) (B2U) (B1U) (B2U) (AG) (B1G) (B3G)
                 (B2G) (B2U) (AG) (B1U) (B3G) (AG) (B3G) (B1U)
                 (B2G) (AG) (B3U) (B1G) (B2U) (AU) (B1U) (AG) (B2G)
                 (B3U) (B1G) (AU) (B2U) (B1U) (B3U) (B2U) (AG)
                 (B1U) (B3G) (B2U) (B3U) (B1U) (B2G) (B3G) (AG)
                 (AG) (B3G) (B1U) (B2U) (AG) (B3U) (B2G) (B3G)
                 (B1G) (AU) (B3G) (B2G) (B1U) (B2U) (AG) (B2U)
                 (AG) (B1U) (B1U) (B2U) (B1G) (AG) (B2G) (AU) (B3U)
                 (B3G) (AG) (AU) (B2U) (B3U) (B2U) (B1U) (AG) (B1U)
                 (B3G) (B1G) (B2G) (AG) (AU) (B3U) (AG) (B3G) (B3U)
                 (B1U) (B2U) (B1G) (B1G) (B2G) (B3G) (AG) (B1U)
                 (B2G) (B2U) (AU) (B3U) (B1U) (B3G) (B2U) (AG)
                 (B1U) (B3G) (B2G) (B1G) (AG) (B2U) (B1U) (AG)
                 (B3G) (B1G) (B2U) (B1U) (B2G) (B1U) (AG) (B2U)
                 (AU) (B3G) (B3U) (B3G) (AG) (B2U) (AG) (B3U) (B3G)
                 (AU) (AG) (B3U) (B1U) (B2G) (AU) (B2U) (B1U) (B1G)
                 (B2G) (AG) (B3G) (B1U) (B3U) (B2U) (B2U) (AG)
                 (B1U) (B3G) (AU) (B3U) (B1G) (AG) (B2U) (B1G)
                 (B2G) (B3G) (B1U) (AG) (B1U) (B3G) (B2G) (AU)
                 (B3U) (B1U) (B1G) (B2G) (B2U) (AG) (B3G) (AU)
                 (B2U) (B1U) (AG) (AU) (B3U) (B3U) (B2U) (B1U)
                 (B3G) (B2G) (B1G) (B3G) (AG) (B1U) (B2U) (B2U)
                 (B2G) (AG) (B3G) (B2G) (AG) (B3U) (B1G) (B3G)
                 (B1U) (AU) (B3U) (B2G) (AG) (B1U) (B3G) (B2U)
                 (AG) (B2U) (B1U) (B1U) (B3G) (AU) (B3G) (B3U)
                 (AG) (B1U) (B2U) (AG) (B1G) (B1U) (B2U) (B1G)
                 (B2G) (B3U) (B3G) (AG) (AU) (B2U) (B1U) (B3U)
                 (B1G) (B2G) (B1G) (AG) (B2U) (B3G) (AG) (B1U)
                 (B3G) (B2U) (B1G) (AG) (B2G) (B3U) (B1U) (AU)
                 (B2U) (B3G) (AG) (AU) (B3U) (B1U) (B2G) (B1G)
                 (B1U) (AG) (B3U) (AU) (B1U) (B2U) (AG) (B2G) (B2U)
                 (AG) (B1U) (B3G) (B3G) (B3U) (B1G) (AG) (B2U)
                 (B2U) (B3G) (B3U) (B2G) (B1U) (AG) (B2G) (AU)
                 (B1G) (B3G) (B2U) (AU) (B1U) (AG) (B3G) (B1U)
                 (B2G) (B3U) (AU) (AG) (B3U) (B1U) (B1G) (B3G)
                 (B2U) (AG) (AU) (B2G) (B1U) (B3G) (B3U) (B2U)
                 (B1G) (B2G) (B3U) (B1G) (B2G) (B1U) (B3G) (B2U)
                 (AG) (AG) (B1U) (AU) (B2U) (B3G) (B2G) (AG) (B1U)
                 (AG) (B3G) (B3U) (AU) (B1U) (B1G) (B2U) (AU) (B3G)
                 (AG) (B1U) (B2U) (B3G) (B2U) (B3U) (AG) (B2G)
                 (B2G) (B3G) (B1U) (B2U) (B1U) (B1U) (AU) (AG)
                 (B2G) (B2U) (B3G) (AG) (B1U) (AG) (B1U) (B2U)
                 (B3G) (B3G) (AG) (B3G) (B2U) (B1U) (B1U) (B3G)
                 (AG) (AG) (B2U) (B1U) (B3G) (B1U) (AG) (B3G)
 ExpMin= 2.53D-02 ExpMax= 8.24D+03 ExpMxC= 2.81D+02 IAcc=3 IRadAn=         5 AccDes= 0.00D+00
 Harris functional with IExCor=  402 and IRadAn=       5 diagonalized for initial guess.
 HarFok:  IExCor=  402 AccDes= 0.00D+00 IRadAn=         5 IDoV= 1 UseB2=F ITyADJ=14
 ICtDFT=  3500011 ScaDFX=  1.000000  1.000000  1.000000  1.000000
 FoFCou: FMM=F IPFlag=           0 FMFlag=      100000 FMFlg1=           0
         NFxFlg=           0 DoJE=T BraDBF=F KetDBF=T FulRan=T
         wScrn=  0.000000 ICntrl=       500 IOpCl=  0 I1Cent=   200000004 NGrid=           0
         NMat0=    1 NMatS0=      1 NMatT0=    0 NMatD0=    1 NMtDS0=    0 NMtDT0=    0
 Petite list used in FoFCou.
 SCF Done:  E(RB3LYP) =  -231.538510421     A.U. after    9 cycles
            NFock=  9  Conv=0.28D-08     -V/T= 1.9736
 Calling FoFJK, ICntrl=      2127 FMM=F ISym2X=1 I1Cent= 0 IOpClX= 0 NMat=1 NMatS=1 NMatT=0.

 GradGradGradGradGradGradGradGradGradGradGradGradGradGradGradGradGradGrad
 Using GEDIIS/GDIIS optimizer.
 FormGI is forming the generalized inverse of G from B-inverse, IUseBI=4.
 Internal  Forces:  Max     0.357451070 RMS     0.094392399
 Step number   2 out of a maximum of  100
 All quantities printed in internal units (Hartrees-Bohrs-Radians)
 Mixed Optimization -- RFO/linear search
 Trust test= 1.00D+00 RLast= 3.00D-01 DXMaxT set to 5.05D-01
 ITU=  1  0
 Use linear search instead of GDIIS.
 Linear search step of   0.600 exceeds DXMaxT=   0.505 but not scaled.
 Quartic linear search produced a step of  2.00000.
 Iteration  1 RMS(Cart)=  0.04881229 RMS(Int)=  0.00604685
 Iteration  2 RMS(Cart)=  0.00469722 RMS(Int)=  0.00025319
 Iteration  3 RMS(Cart)=  0.00000281 RMS(Int)=  0.00025317
 Iteration  4 RMS(Cart)=  0.00000000 RMS(Int)=  0.00025317
 ClnCor:  largest displacement from symmetrization is 9.12D-15 for atom     9.
 Variable       Old X    -DE/DX   Delta X   Delta X   Delta X     New X
                                 (Linear)    (Quad)   (Total)
    R1        1.91892   0.06767   0.05839   0.00000   0.05839   1.97731
    R2        2.11006  -0.00945  -0.00543   0.00000  -0.00543   2.10464
    R3        2.17564   0.13426   0.12572   0.00000   0.12579   2.30142
    R4        2.17564   0.13426   0.12572   0.00000   0.12579   2.30142
    R5        3.52506   0.35745   0.23662   0.00000   0.23631   3.76137
    R6        3.52506   0.35745   0.23662   0.00000   0.23631   3.76137
    R7        2.11006  -0.00945  -0.00543   0.00000  -0.00543   2.10464
    R8        1.97546   0.34731   0.17147   0.00000   0.17242   2.14789
    R9        3.52506   0.35745   0.23662   0.00000   0.23631   3.76137
   R10        1.97546   0.34731   0.17147   0.00000   0.17242   2.14789
   R11        3.52506   0.35745   0.23662   0.00000   0.23631   3.76137
   R12        2.11006  -0.00945  -0.00543   0.00000  -0.00543   2.10464
   R13        2.17564   0.13426   0.12572   0.00000   0.12579   2.30142
   R14        2.17564   0.13426   0.12572   0.00000   0.12579   2.30142
   R15        2.11006  -0.00945  -0.00543   0.00000  -0.00543   2.10464
   R16        1.91892   0.06767   0.05839   0.00000   0.05839   1.97731
    A1        2.02744  -0.04362  -0.01400   0.00000  -0.01363   2.01381
    A2        2.02744  -0.04362  -0.01400   0.00000  -0.01363   2.01381
    A3        2.55449   0.01215   0.00180   0.00000   0.00139   2.55588
    A4        2.55449   0.01215   0.00180   0.00000   0.00139   2.55588
    A5        2.22830   0.08725   0.02800   0.00000   0.02726   2.25556
    A6        1.70125   0.03147   0.01220   0.00000   0.01224   1.71349
    A7        1.70125   0.03147   0.01220   0.00000   0.01224   1.71349
    A8        1.17420  -0.02430  -0.00360   0.00000  -0.00279   1.17142
    A9        2.21072   0.01020  -0.00715   0.00000  -0.00726   2.20347
   A10        2.04502   0.03342   0.02115   0.00000   0.02089   2.06590
   A11        2.63212   0.02127   0.01934   0.00000   0.01949   2.65161
   A12        1.44034  -0.03147  -0.01220   0.00000  -0.01224   1.42810
   A13        2.21072   0.01020  -0.00715   0.00000  -0.00726   2.20347
   A14        1.44034  -0.03147  -0.01220   0.00000  -0.01224   1.42810
   A15        2.04502   0.03342   0.02115   0.00000   0.02089   2.06590
   A16        2.63212   0.02127   0.01934   0.00000   0.01949   2.65161
   A17        2.63212   0.02127   0.01934   0.00000   0.01949   2.65161
   A18        1.44034  -0.03147  -0.01220   0.00000  -0.01224   1.42810
   A19        2.04502   0.03342   0.02115   0.00000   0.02089   2.06590
   A20        2.21072   0.01020  -0.00715   0.00000  -0.00726   2.20347
   A21        1.44034  -0.03147  -0.01220   0.00000  -0.01224   1.42810
   A22        2.63212   0.02127   0.01934   0.00000   0.01949   2.65161
   A23        2.04502   0.03342   0.02115   0.00000   0.02089   2.06590
   A24        2.21072   0.01020  -0.00715   0.00000  -0.00726   2.20347
   A25        1.17420  -0.02430  -0.00360   0.00000  -0.00279   1.17142
   A26        1.70125   0.03147   0.01220   0.00000   0.01224   1.71349
   A27        2.55449   0.01215   0.00180   0.00000   0.00139   2.55588
   A28        1.70125   0.03147   0.01220   0.00000   0.01224   1.71349
   A29        2.55449   0.01215   0.00180   0.00000   0.00139   2.55588
   A30        2.22830   0.08725   0.02800   0.00000   0.02726   2.25556
   A31        2.02744  -0.04362  -0.01400   0.00000  -0.01363   2.01381
   A32        2.02744  -0.04362  -0.01400   0.00000  -0.01363   2.01381
    D1        0.00000  -0.00000   0.00000   0.00000   0.00000   0.00000
    D2        3.14159  -0.00000   0.00000   0.00000   0.00000   3.14159
    D3        3.14159   0.00000   0.00000   0.00000   0.00000   3.14159
    D4        0.00000   0.00000   0.00000   0.00000  -0.00000   0.00000
    D5        3.14159   0.00000   0.00000   0.00000   0.00000   3.14159
    D6        0.00000   0.00000   0.00000   0.00000  -0.00000   0.00000
    D7        0.00000  -0.00000   0.00000   0.00000  -0.00000   0.00000
    D8        3.14159   0.00000   0.00000   0.00000   0.00000   3.14159
    D9        3.14159  -0.00000   0.00000   0.00000   0.00000   3.14159
   D10        0.00000  -0.00000   0.00000   0.00000   0.00000   0.00000
   D11        3.14159   0.00000   0.00000   0.00000   0.00000   3.14159
   D12        0.00000   0.00000   0.00000   0.00000   0.00000   0.00000
   D13        0.00000  -0.00000   0.00000   0.00000   0.00000   0.00000
   D14        3.14159  -0.00000   0.00000   0.00000   0.00000   3.14159
   D15        3.14159  -0.00000   0.00000   0.00000   0.00000   3.14159
   D16        0.00000  -0.00000   0.00000   0.00000  -0.00000   0.00000
   D17        3.14159   0.00000   0.00000   0.00000   0.00000   3.14159
   D18        0.00000  -0.00000   0.00000   0.00000  -0.00000   0.00000
   D19        3.14159   0.00000   0.00000   0.00000   0.00000   3.14159
   D20        0.00000   0.00000   0.00000   0.00000  -0.00000   0.00000
   D21        0.00000  -0.00000   0.00000   0.00000   0.00000   0.00000
   D22        3.14159  -0.00000   0.00000   0.00000   0.00000   3.14159
   D23        0.00000   0.00000   0.00000   0.00000   0.00000   0.00000
   D24        3.14159   0.00000   0.00000   0.00000   0.00000   3.14159
   D25        0.00000   0.00000   0.00000   0.00000   0.00000   0.00000
   D26        3.14159  -0.00000   0.00000   0.00000   0.00000   3.14159
   D27        3.14159  -0.00000   0.00000   0.00000   0.00000   3.14159
   D28        0.00000   0.00000   0.00000   0.00000  -0.00000   0.00000
   D29        0.00000  -0.00000   0.00000   0.00000   0.00000   0.00000
   D30        0.00000  -0.00000   0.00000   0.00000   0.00000   0.00000
   D31        3.14159   0.00000   0.00000   0.00000   0.00000   3.14159
   D32        0.00000   0.00000   0.00000   0.00000  -0.00000   0.00000
   D33        0.00000   0.00000   0.00000   0.00000  -0.00000   0.00000
   D34        0.00000  -0.00000   0.00000   0.00000  -0.00000   0.00000
   D35        3.14159  -0.00000   0.00000   0.00000   0.00000   3.14159
   D36        3.14159   0.00000   0.00000   0.00000   0.00000   3.14159
   D37        3.14159  -0.00000   0.00000   0.00000   0.00000   3.14159
   D38        0.00000  -0.00000   0.00000   0.00000   0.00000   0.00000
   D39        0.00000   0.00000   0.00000   0.00000   0.00000   0.00000
   D40        0.00000   0.00000   0.00000   0.00000   0.00000   0.00000
   D41        3.14159   0.00000   0.00000   0.00000   0.00000   3.14159
   D42        3.14159   0.00000   0.00000   0.00000   0.00000   3.14159
   D43        3.14159   0.00000   0.00000   0.00000   0.00000   3.14159
   D44        0.00000   0.00000   0.00000   0.00000  -0.00000   0.00000
   D45        0.00000   0.00000   0.00000   0.00000  -0.00000   0.00000
   D46        0.00000  -0.00000   0.00000   0.00000  -0.00000   0.00000
   D47        3.14159  -0.00000   0.00000   0.00000   0.00000   3.14159
   D48        3.14159   0.00000   0.00000   0.00000   0.00000   3.14159
   D49        3.14159  -0.00000   0.00000   0.00000   0.00000   3.14159
   D50        0.00000  -0.00000   0.00000   0.00000  -0.00000   0.00000
         Item               Value     Threshold  Converged?
 Maximum Force            0.357451     0.000450     NO 
 RMS     Force            0.094392     0.000300     NO 
 Maximum Displacement     0.171818     0.001800     NO 
 RMS     Displacement     0.053423     0.001200     NO 
 GradGradGradGradGradGradGradGradGradGradGradGradGradGradGradGradGradGrad

                    Distance matrix (angstroms):
                    1          2          3          4          5
     1  H    0.000000
     2  H    2.325423   0.000000
     3  C    1.046349   2.080291   0.000000
     4  H    2.325423   4.160558   2.080291   0.000000
     5  C    1.915865   1.113725   1.217861   3.224289   0.000000
     6  C    1.915865   3.224289   1.217861   1.113725   2.200585
     7  C    2.920234   1.932659   1.990434   3.590380   1.136613
     8  C    2.920234   3.590380   1.990434   1.932659   2.476784
     9  H    3.845448   2.194933   3.018966   4.704038   1.932659
    10  C    3.227074   3.018966   2.180725   3.018966   1.990434
    11  H    3.845448   4.704038   3.018966   2.194933   3.590380
    12  H    4.273423   3.845448   3.227074   3.845448   2.920234
                    6          7          8          9         10
     6  C    0.000000
     7  C    2.476784   0.000000
     8  C    1.136613   2.200585   0.000000
     9  H    3.590380   1.113725   3.224289   0.000000
    10  C    1.990434   1.217861   1.217861   2.080291   0.000000
    11  H    1.932659   3.224289   1.113725   4.160558   2.080291
    12  H    2.920234   1.915865   1.915865   2.325423   1.046349
                   11         12
    11  H    0.000000
    12  H    2.325423   0.000000
 Framework group  D2H[C2"(HC.CH),SG(C4H4)]
 Deg. of freedom     6
                   Standard orientation:
 ---------------------------------------------------------------------
 Center     Atomic                     Coordinates (Angstroms)
 Number     Number                        X           Y           Z
 ---------------------------------------------------------------------
      1          1                    0.000000    0.000000    2.136712
      2          1                    0.000000    2.080279    1.097466
      3          6                    0.000000    0.000000    1.090363
      4          1                    0.000000   -2.080279    1.097466
      5          6                    0.000000    1.100292    0.568306
      6          6                    0.000000   -1.100292    0.568306
      7          6                    0.000000    1.100292   -0.568306
      8          6                    0.000000   -1.100292   -0.568306
      9          1                    0.000000    2.080279   -1.097466
     10          6                    0.000000    0.000000   -1.090363
     11          1                    0.000000   -2.080279   -1.097466
     12          1                    0.000000    0.000000   -2.136712
 ---------------------------------------------------------------------
 Rotational constants (GHZ):           8.6993336           6.6887510           3.7813463
   414 basis functions,   594 primitive gaussians,   480 cartesian basis functions
    21 alpha electrons       21 beta electrons
       nuclear repulsion energy       233.1316356642 Hartrees.
 NAtoms=   12 NActive=   12 NUniq=    4 SFac= 4.00D+00 NAtFMM=   60 NAOKFM=F Big=F
 Initial guess from the checkpoint file:  "optimization-gaussian.chk"
 B after Tr=     0.000000   -0.000000   -0.000000
         Rot=    1.000000    0.000000    0.000000    0.000000 Ang=   0.00 deg.
 Initial guess orbital symmetries:
       Occupied  (AG) (B2U) (B1U) (AG) (B3G) (B1U) (AG) (B2U) (B1U)
                 (AG) (B3G) (AG) (B2U) (B3U) (B2U) (B1U) (B1U)
                 (B1G) (B3G) (AG) (B2G)
       Virtual   (AG) (B2U) (B1U) (AG) (B3G) (B3U) (B3U) (AG) (B1U)
                 (AU) (B1G) (B2G) (B2U) (AG) (B1U) (B2U) (AG) (B3G)
                 (B2U) (B1U) (B3U) (AU) (B3G) (AG) (B2G) (B1U)
                 (AG) (B3U) (B2U) (B1U) (B2U) (B3G) (AG) (B1G)
                 (B2G) (B2U) (AG) (B1U) (B3G) (AG) (B3G) (B2G)
                 (B1U) (AG) (B3U) (B2U) (B1U) (AU) (B1G) (AG) (B2G)
                 (B3U) (B1G) (AU) (B2U) (B1U) (B3U) (B2U) (AG)
                 (B1U) (B3G) (B2U) (B3U) (B2G) (B1U) (B3G) (AG)
                 (B3G) (AG) (B2U) (B1U) (AG) (B3U) (B2G) (B3G)
                 (B1G) (AU) (B1U) (B3G) (AG) (B2G) (B2U) (B2U)
                 (AG) (B1U) (B1U) (B2U) (AG) (B1G) (B2G) (AU) (B3G)
                 (AG) (B3G) (B3U) (B2U) (AU) (B3U) (AG) (B2U) (B1U)
                 (B1U) (B1G) (AG) (B3G) (B2G) (AG) (AU) (B3U) (B3U)
                 (AG) (B1U) (B2U) (B3G) (B1G) (B1G) (B2G) (B1U)
                 (AG) (B2G) (AU) (B3U) (B1U) (B3G) (B2U) (B3G)
                 (B2U) (B1U) (B2G) (AG) (B1G) (AG) (B2U) (B1U)
                 (B3G) (B1G) (B1U) (B2U) (B2G) (B1U) (AG) (B3G)
                 (AU) (B2U) (AG) (B3U) (B3G) (AG) (B3G) (B2U) (AG)
                 (B3U) (B3G) (AU) (B1U) (B3U) (AG) (B2G) (AU) (B1U)
                 (B2U) (AG) (B2G) (B1G) (B3G) (B1U) (B3U) (B2U)
                 (B2U) (B1U) (AG) (AU) (B3G) (B3U) (B1G) (B3G)
                 (AG) (B2U) (B1G) (B1U) (B2G) (B1U) (AG) (B3G)
                 (B2G) (B1U) (AU) (B1G) (B3U) (B2G) (B2U) (AG)
                 (AU) (B2U) (B1U) (AU) (AG) (B3U) (B3G) (B3U) (B1U)
                 (B1G) (B3G) (B2G) (B1U) (B2U) (AG) (B2U) (B2U)
                 (B3G) (B2G) (B2G) (AG) (B3U) (B3G) (B1G) (AG)
                 (B1U) (B3G) (AU) (B3U) (B2G) (B2U) (B1U) (AG)
                 (B3G) (B2U) (AG) (B1U) (B1U) (B3G) (AU) (B3G)
                 (B3U) (B1U) (AG) (B2U) (AG) (B1G) (B2U) (B1U)
                 (B2G) (B1G) (B3G) (B3U) (AU) (AG) (B2U) (B1U)
                 (B3U) (B1G) (B2G) (B1G) (AG) (B2U) (B3G) (B1U)
                 (AG) (B3G) (B2U) (B2G) (AG) (AU) (B1G) (B3U) (B1U)
                 (B2U) (AG) (B3U) (B1U) (AU) (B3G) (B2G) (B3U)
                 (B1U) (B1G) (AG) (AU) (B1U) (AG) (B2U) (B2G) (B3G)
                 (B2U) (AG) (B1U) (B3U) (B3G) (B2U) (B2U) (B1G)
                 (AG) (B3U) (B2G) (B3G) (B1U) (AG) (B2G) (B1G)
                 (AU) (B2U) (B3G) (B1U) (AU) (AG) (B3G) (B2G) (B1U)
                 (B3U) (AG) (AU) (B1U) (B1G) (B3G) (B3U) (B2U)
                 (B2G) (AG) (B1U) (AU) (B3G) (B2U) (B3U) (B1G)
                 (B2G) (B3U) (B1G) (B1U) (B2G) (AG) (B2U) (B3G)
                 (B1U) (AU) (B2U) (AG) (B2G) (B3G) (AG) (B1U) (B3U)
                 (AG) (AU) (B3G) (B2U) (B1U) (B1G) (AU) (B3G) (AG)
                 (B1U) (B2U) (B3G) (B3U) (B2G) (B2U) (AG) (B2G)
                 (B1U) (B3G) (B2U) (B1U) (AU) (B1U) (AG) (B2G)
                 (B3G) (B2U) (AG) (B1U) (AG) (B2U) (B1U) (B3G)
                 (AG) (B3G) (B1U) (B2U) (B3G) (B1U) (B3G) (AG)
                 (AG) (B2U) (B1U) (B3G) (B1U) (B1U)
 ExpMin= 2.53D-02 ExpMax= 8.24D+03 ExpMxC= 2.81D+02 IAcc=3 IRadAn=         5 AccDes= 0.00D+00
 Harris functional with IExCor=  402 and IRadAn=       5 diagonalized for initial guess.
 HarFok:  IExCor=  402 AccDes= 0.00D+00 IRadAn=         5 IDoV= 1 UseB2=F ITyADJ=14
 ICtDFT=  3500011 ScaDFX=  1.000000  1.000000  1.000000  1.000000
 FoFCou: FMM=F IPFlag=           0 FMFlag=      100000 FMFlg1=           0
         NFxFlg=           0 DoJE=T BraDBF=F KetDBF=T FulRan=T
         wScrn=  0.000000 ICntrl=       500 IOpCl=  0 I1Cent=   200000004 NGrid=           0
         NMat0=    1 NMatS0=      1 NMatT0=    0 NMatD0=    1 NMtDS0=    0 NMtDT0=    0
 Petite list used in FoFCou.
 SCF Done:  E(RB3LYP) =  -231.962153114     A.U. after   10 cycles
            NFock= 10  Conv=0.16D-08     -V/T= 1.9861
 Calling FoFJK, ICntrl=      2127 FMM=F ISym2X=1 I1Cent= 0 IOpClX= 0 NMat=1 NMatS=1 NMatT=0.

 GradGradGradGradGradGradGradGradGradGradGradGradGradGradGradGradGradGrad
 Using GEDIIS/GDIIS optimizer.
 FormGI is forming the generalized inverse of G from B-inverse, IUseBI=4.
 Internal  Forces:  Max     0.206145039 RMS     0.053599372
 Step number   3 out of a maximum of  100
 All quantities printed in internal units (Hartrees-Bohrs-Radians)
 Mixed Optimization -- RFO/linear search
 ITU=  0  1  0
 Use linear search instead of GDIIS.
 Linear search step of   1.200 exceeds DXMaxT=   0.505 scaled by   0.841
 Quartic linear search produced a step of  1.68183.
 Iteration  1 RMS(Cart)=  0.06048803 RMS(Int)=  0.03929336
 Iteration  2 RMS(Cart)=  0.03053255 RMS(Int)=  0.00069171
 Iteration  3 RMS(Cart)=  0.00011793 RMS(Int)=  0.00067954
 Iteration  4 RMS(Cart)=  0.00000002 RMS(Int)=  0.00067954
 ClnCor:  largest displacement from symmetrization is 7.98D-14 for atom     9.
 Variable       Old X    -DE/DX   Delta X   Delta X   Delta X     New X
                                 (Linear)    (Quad)   (Total)
    R1        1.97731   0.03766   0.09820   0.00000   0.09820   2.07552
    R2        2.10464  -0.01323  -0.00913   0.00000  -0.00913   2.09551
    R3        2.30142   0.08567   0.21155   0.00000   0.21195   2.51337
    R4        2.30142   0.08567   0.21155   0.00000   0.21195   2.51337
    R5        3.76137   0.20615   0.39743   0.00000   0.39643   4.15780
    R6        3.76137   0.20615   0.39743   0.00000   0.39643   4.15780
    R7        2.10464  -0.01323  -0.00913   0.00000  -0.00913   2.09551
    R8        2.14789   0.18701   0.28999   0.00000   0.29260   2.44049
    R9        3.76137   0.20615   0.39743   0.00000   0.39643   4.15780
   R10        2.14789   0.18701   0.28999   0.00000   0.29260   2.44049
   R11        3.76137   0.20615   0.39743   0.00000   0.39643   4.15780
   R12        2.10464  -0.01323  -0.00913   0.00000  -0.00913   2.09551
   R13        2.30142   0.08567   0.21155   0.00000   0.21195   2.51337
   R14        2.30142   0.08567   0.21155   0.00000   0.21195   2.51337
   R15        2.10464  -0.01323  -0.00913   0.00000  -0.00913   2.09551
   R16        1.97731   0.03766   0.09820   0.00000   0.09820   2.07552
    A1        2.01381  -0.01945  -0.02293   0.00000  -0.02195   1.99187
    A2        2.01381  -0.01945  -0.02293   0.00000  -0.02195   1.99187
    A3        2.55588   0.00554   0.00234   0.00000   0.00132   2.55720
    A4        2.55588   0.00554   0.00234   0.00000   0.00132   2.55720
    A5        2.25556   0.03889   0.04585   0.00000   0.04389   2.29945
    A6        1.71349   0.01390   0.02058   0.00000   0.02063   1.73412
    A7        1.71349   0.01390   0.02058   0.00000   0.02063   1.73412
    A8        1.17142  -0.01108  -0.00469   0.00000  -0.00263   1.16879
    A9        2.20347   0.00009  -0.01220   0.00000  -0.01251   2.19096
   A10        2.06590   0.01936   0.03513   0.00000   0.03446   2.10036
   A11        2.65161   0.01382   0.03279   0.00000   0.03314   2.68476
   A12        1.42810  -0.01390  -0.02058   0.00000  -0.02063   1.40747
   A13        2.20347   0.00009  -0.01220   0.00000  -0.01251   2.19096
   A14        1.42810  -0.01390  -0.02058   0.00000  -0.02063   1.40747
   A15        2.06590   0.01936   0.03513   0.00000   0.03446   2.10036
   A16        2.65161   0.01382   0.03279   0.00000   0.03314   2.68476
   A17        2.65161   0.01382   0.03279   0.00000   0.03314   2.68476
   A18        1.42810  -0.01390  -0.02058   0.00000  -0.02063   1.40747
   A19        2.06590   0.01936   0.03513   0.00000   0.03446   2.10036
   A20        2.20347   0.00009  -0.01220   0.00000  -0.01251   2.19096
   A21        1.42810  -0.01390  -0.02058   0.00000  -0.02063   1.40747
   A22        2.65161   0.01382   0.03279   0.00000   0.03314   2.68476
   A23        2.06590   0.01936   0.03513   0.00000   0.03446   2.10036
   A24        2.20347   0.00009  -0.01220   0.00000  -0.01251   2.19096
   A25        1.17142  -0.01108  -0.00469   0.00000  -0.00263   1.16879
   A26        1.71349   0.01390   0.02058   0.00000   0.02063   1.73412
   A27        2.55588   0.00554   0.00234   0.00000   0.00132   2.55720
   A28        1.71349   0.01390   0.02058   0.00000   0.02063   1.73412
   A29        2.55588   0.00554   0.00234   0.00000   0.00132   2.55720
   A30        2.25556   0.03889   0.04585   0.00000   0.04389   2.29945
   A31        2.01381  -0.01945  -0.02293   0.00000  -0.02195   1.99187
   A32        2.01381  -0.01945  -0.02293   0.00000  -0.02195   1.99187
    D1        0.00000  -0.00000   0.00000   0.00000  -0.00000   0.00000
    D2        3.14159   0.00000   0.00000   0.00000   0.00000   3.14159
    D3        3.14159  -0.00000   0.00000   0.00000   0.00000   3.14159
    D4        0.00000   0.00000   0.00000   0.00000  -0.00000   0.00000
    D5        3.14159   0.00000   0.00000   0.00000   0.00000   3.14159
    D6        0.00000   0.00000   0.00000   0.00000  -0.00000   0.00000
    D7        0.00000  -0.00000   0.00000   0.00000   0.00000   0.00000
    D8        3.14159  -0.00000   0.00000   0.00000   0.00000   3.14159
    D9        3.14159  -0.00000   0.00000   0.00000   0.00000   3.14159
   D10        0.00000  -0.00000   0.00000   0.00000   0.00000   0.00000
   D11        3.14159  -0.00000   0.00000   0.00000   0.00000   3.14159
   D12        0.00000  -0.00000   0.00000   0.00000   0.00000   0.00000
   D13        0.00000  -0.00000   0.00000   0.00000   0.00000   0.00000
   D14        3.14159   0.00000   0.00000   0.00000   0.00000   3.14159
   D15        3.14159  -0.00000   0.00000   0.00000   0.00000   3.14159
   D16        0.00000   0.00000   0.00000   0.00000  -0.00000   0.00000
   D17        3.14159   0.00000   0.00000   0.00000   0.00000   3.14159
   D18        0.00000   0.00000   0.00000   0.00000  -0.00000   0.00000
   D19        3.14159  -0.00000   0.00000   0.00000   0.00000   3.14159
   D20        0.00000   0.00000   0.00000   0.00000   0.00000   0.00000
   D21        0.00000  -0.00000   0.00000   0.00000   0.00000   0.00000
   D22        3.14159  -0.00000   0.00000   0.00000   0.00000   3.14159
   D23        0.00000  -0.00000   0.00000   0.00000   0.00000   0.00000
   D24        3.14159  -0.00000   0.00000   0.00000   0.00000   3.14159
   D25        0.00000   0.00000   0.00000   0.00000  -0.00000   0.00000
   D26        3.14159   0.00000   0.00000   0.00000   0.00000   3.14159
   D27        3.14159  -0.00000   0.00000   0.00000   0.00000   3.14159
   D28        0.00000   0.00000   0.00000   0.00000  -0.00000   0.00000
   D29        0.00000  -0.00000   0.00000   0.00000   0.00000   0.00000
   D30        0.00000  -0.00000   0.00000   0.00000   0.00000   0.00000
   D31        3.14159  -0.00000   0.00000   0.00000   0.00000   3.14159
   D32        0.00000   0.00000   0.00000   0.00000   0.00000   0.00000
   D33        0.00000   0.00000   0.00000   0.00000  -0.00000   0.00000
   D34        0.00000   0.00000   0.00000   0.00000  -0.00000   0.00000
   D35        3.14159   0.00000   0.00000   0.00000   0.00000   3.14159
   D36        3.14159  -0.00000   0.00000   0.00000   0.00000   3.14159
   D37        3.14159   0.00000   0.00000   0.00000   0.00000   3.14159
   D38        0.00000   0.00000   0.00000   0.00000   0.00000   0.00000
   D39        0.00000  -0.00000   0.00000   0.00000   0.00000   0.00000
   D40        0.00000  -0.00000   0.00000   0.00000   0.00000   0.00000
   D41        3.14159  -0.00000   0.00000   0.00000   0.00000   3.14159
   D42        3.14159   0.00000   0.00000   0.00000   0.00000   3.14159
   D43        3.14159  -0.00000   0.00000   0.00000   0.00000   3.14159
   D44        0.00000   0.00000   0.00000   0.00000  -0.00000   0.00000
   D45        0.00000   0.00000   0.00000   0.00000  -0.00000   0.00000
   D46        0.00000   0.00000   0.00000   0.00000  -0.00000   0.00000
   D47        3.14159   0.00000   0.00000   0.00000   0.00000   3.14159
   D48        3.14159   0.00000   0.00000   0.00000   0.00000   3.14159
   D49        3.14159   0.00000   0.00000   0.00000   0.00000   3.14159
   D50        0.00000   0.00000   0.00000   0.00000  -0.00000   0.00000
         Item               Value     Threshold  Converged?
 Maximum Force            0.206145     0.000450     NO 
 RMS     Force            0.053599     0.000300     NO 
 Maximum Displacement     0.285274     0.001800     NO 
 RMS     Displacement     0.089651     0.001200     NO 
 GradGradGradGradGradGradGradGradGradGradGradGradGradGradGradGradGradGrad

                    Distance matrix (angstroms):
                    1          2          3          4          5
     1  H    0.000000
     2  H    2.425454   0.000000
     3  C    1.098316   2.170912   0.000000
     4  H    2.425454   4.341697   2.170912   0.000000
     5  C    2.041912   1.108894   1.330019   3.430733   0.000000
     6  C    2.041912   3.430733   1.330019   1.108894   2.427688
     7  C    3.174625   2.084312   2.200214   3.858062   1.291452
     8  C    3.174625   3.858062   2.200214   2.084312   2.749821
     9  H    4.113100   2.411789   3.232616   4.966594   2.084312
    10  C    3.477027   3.232616   2.378711   3.232616   2.200214
    11  H    4.113100   4.966594   3.232616   2.411789   3.858062
    12  H    4.575344   4.113100   3.477027   4.113100   3.174625
                    6          7          8          9         10
     6  C    0.000000
     7  C    2.749821   0.000000
     8  C    1.291452   2.427688   0.000000
     9  H    3.858062   1.108894   3.430733   0.000000
    10  C    2.200214   1.330019   1.330019   2.170912   0.000000
    11  H    2.084312   3.430733   1.108894   4.341697   2.170912
    12  H    3.174625   2.041912   2.041912   2.425454   1.098316
                   11         12
    11  H    0.000000
    12  H    2.425454   0.000000
 Framework group  D2H[C2"(HC.CH),SG(C4H4)]
 Deg. of freedom     6
                   Standard orientation:
 ---------------------------------------------------------------------
 Center     Atomic                     Coordinates (Angstroms)
 Number     Number                        X           Y           Z
 ---------------------------------------------------------------------
      1          1                    0.000000    0.000000    2.287672
      2          1                    0.000000    2.170849    1.205894
      3          6                    0.000000    0.000000    1.189356
      4          1                    0.000000   -2.170849    1.205894
      5          6                    0.000000    1.213844    0.645726
      6          6                    0.000000   -1.213844    0.645726
      7          6                    0.000000    1.213844   -0.645726
      8          6                    0.000000   -1.213844   -0.645726
      9          1                    0.000000    2.170849   -1.205894
     10          6                    0.000000    0.000000   -1.189356
     11          1                    0.000000   -2.170849   -1.205894
     12          1                    0.000000    0.000000   -2.287672
 ---------------------------------------------------------------------
 Rotational constants (GHZ):           7.1812481           5.6327302           3.1567115
   414 basis functions,   594 primitive gaussians,   480 cartesian basis functions
    21 alpha electrons       21 beta electrons
       nuclear repulsion energy       213.5343007017 Hartrees.
 NAtoms=   12 NActive=   12 NUniq=    4 SFac= 4.00D+00 NAtFMM=   60 NAOKFM=F Big=F
 Initial guess from the checkpoint file:  "optimization-gaussian.chk"
 B after Tr=     0.000000   -0.000000    0.000000
         Rot=    1.000000    0.000000    0.000000    0.000000 Ang=   0.00 deg.
 Initial guess orbital symmetries:
       Occupied  (AG) (B2U) (B1U) (B3G) (AG) (B1U) (AG) (B2U) (B1U)
                 (AG) (B3G) (AG) (B2U) (B3U) (B2U) (B1U) (B1U)
                 (B3G) (B1G) (AG) (B2G)
       Virtual   (AG) (B2U) (B1U) (B3U) (AG) (B3G) (B3U) (AU) (AG)
                 (B1U) (B1G) (B2G) (B2U) (B1U) (AG) (B2U) (AG)
                 (B3G) (B2U) (B1U) (B3U) (AU) (B3G) (AG) (B2G)
                 (B1U) (AG) (B3U) (B2U) (B1U) (B2U) (B3G) (AG)
                 (B1G) (B2U) (B2G) (AG) (B1U) (B3G) (B2G) (AG)
                 (B3G) (B1U) (AG) (B1U) (B2U) (B3U) (AU) (B1G)
                 (AG) (B1G) (B2G) (B3U) (AU) (B1U) (B2U) (B3U)
                 (AG) (B2G) (B1U) (B3G) (B2U) (B2U) (B1U) (B3U)
                 (B3G) (AG) (B3G) (B1U) (AG) (B2U) (AG) (B2G) (B3G)
                 (B3U) (B1G) (B1U) (AU) (B3G) (AG) (B2G) (B2U)
                 (AG) (B1U) (B2U) (B2U) (AG) (B1U) (B3G) (B1G)
                 (AU) (B2G) (B3G) (B1U) (AG) (B2U) (B3U) (AG) (B1U)
                 (AU) (B2U) (B3U) (AG) (B2G) (B1G) (B3G) (B1U)
                 (AG) (B3U) (AU) (B3U) (B3G) (AG) (B2U) (B1G) (B1U)
                 (B1G) (B2G) (B1U) (B2G) (AU) (AG) (B3G) (B3U)
                 (B3G) (B2U) (B1U) (B2U) (B2G) (AG) (B1G) (AG)
                 (B1U) (B1G) (B2U) (B3G) (B1U) (B3G) (B1U) (B2U)
                 (B2G) (AG) (AU) (AG) (B2U) (B3U) (B3G) (AG) (B1U)
                 (B3G) (B3G) (B3U) (B2U) (AG) (AU) (B1U) (B3U)
                 (B1U) (AU) (B2G) (AG) (B2U) (B2G) (B3G) (AG) (B1G)
                 (B1U) (B3U) (B2U) (B3G) (AU) (B2U) (B3U) (B1U)
                 (B1G) (AG) (B3G) (AG) (B1G) (B1U) (B2G) (B2U)
                 (B1U) (B2G) (AG) (B1U) (B3G) (B2U) (B1G) (AU)
                 (B2G) (B3U) (AG) (AU) (B2U) (B1U) (AG) (B3U) (AU)
                 (B3G) (B1U) (B3U) (B1G) (B3G) (B2U) (B2G) (AG)
                 (B2U) (B1U) (B3G) (B2G) (B3G) (AG) (B2U) (B3U)
                 (B2G) (B1G) (B1U) (AG) (B2U) (AU) (B3G) (B2G)
                 (B1U) (B3U) (B1U) (B3G) (AG) (B2U) (AG) (B1U)
                 (B3G) (AU) (B3G) (AG) (B2U) (B3U) (B3G) (B1G)
                 (B1U) (AG) (B2G) (B1U) (B2U) (B3U) (B1G) (AU)
                 (B2U) (B1G) (AG) (B3G) (B3U) (B2U) (B2G) (AG)
                 (B1G) (B1U) (B1U) (AG) (B3G) (B2U) (B2G) (AU)
                 (B3U) (B1G) (AG) (B3U) (AU) (B1U) (B3U) (AG) (B2U)
                 (B1U) (B3G) (AU) (AG) (B2G) (B1U) (B1G) (AG) (B2G)
                 (B3G) (B1U) (B2U) (B3U) (B2U) (AG) (B3G) (B2U)
                 (AG) (B1U) (B2U) (B1G) (B1U) (B3G) (B2G) (AG)
                 (B3U) (B2G) (B1G) (B2U) (B1U) (AU) (B3G) (AG)
                 (AU) (B1U) (B2G) (B3G) (B3U) (AG) (B1G) (B3G)
                 (B2G) (B2U) (AU) (B1U) (AG) (B1U) (B3U) (B3G)
                 (AU) (B2U) (B3U) (B1U) (B1G) (B2U) (B1G) (B3U)
                 (B2G) (AG) (B2G) (B3G) (AU) (B2G) (B1U) (B2U)
                 (AG) (B3G) (B1U) (B3U) (AU) (AG) (B2U) (AG) (B3G)
                 (B1G) (B1U) (AU) (B3G) (AG) (B3G) (B2U) (B2G)
                 (B1U) (B3U) (B2G) (AG) (B2U) (B1U) (B3G) (AG)
                 (B2U) (AU) (B3G) (B1U) (B2G) (AG) (B2U) (B1U)
                 (B1U) (AG) (B2U) (B1U) (B3G) (B3G) (AG) (B1U)
                 (B2U) (B3G) (B1U) (B3G) (AG) (AG) (B3G) (B2U)
                 (B1U) (B1U) (B3G) (B1U) (B1U)
 ExpMin= 2.53D-02 ExpMax= 8.24D+03 ExpMxC= 2.81D+02 IAcc=3 IRadAn=         5 AccDes= 0.00D+00
 Harris functional with IExCor=  402 and IRadAn=       5 diagonalized for initial guess.
 HarFok:  IExCor=  402 AccDes= 0.00D+00 IRadAn=         5 IDoV= 1 UseB2=F ITyADJ=14
 ICtDFT=  3500011 ScaDFX=  1.000000  1.000000  1.000000  1.000000
 FoFCou: FMM=F IPFlag=           0 FMFlag=      100000 FMFlg1=           0
         NFxFlg=           0 DoJE=T BraDBF=F KetDBF=T FulRan=T
         wScrn=  0.000000 ICntrl=       500 IOpCl=  0 I1Cent=   200000004 NGrid=           0
         NMat0=    1 NMatS0=      1 NMatT0=    0 NMatD0=    1 NMtDS0=    0 NMtDT0=    0
 Petite list used in FoFCou.
 SCF Done:  E(RB3LYP) =  -232.271237482     A.U. after   10 cycles
            NFock= 10  Conv=0.30D-08     -V/T= 2.0011
 Calling FoFJK, ICntrl=      2127 FMM=F ISym2X=1 I1Cent= 0 IOpClX= 0 NMat=1 NMatS=1 NMatT=0.

 GradGradGradGradGradGradGradGradGradGradGradGradGradGradGradGradGradGrad
 Using GEDIIS/GDIIS optimizer.
 FormGI is forming the generalized inverse of G from B-inverse, IUseBI=4.
 Internal  Forces:  Max     0.056705316 RMS     0.014552378
 Step number   4 out of a maximum of  100
 All quantities printed in internal units (Hartrees-Bohrs-Radians)
 Mixed Optimization -- RFO/linear search
 ITU=  0  0  1  0
 Use linear search instead of GDIIS.
 Linear search step of   0.627 exceeds DXMaxT=   0.505 but not scaled.
 Quartic linear search produced a step of  0.62098.
 Iteration  1 RMS(Cart)=  0.04983223 RMS(Int)=  0.00764884
 Iteration  2 RMS(Cart)=  0.00588821 RMS(Int)=  0.00038414
 Iteration  3 RMS(Cart)=  0.00000593 RMS(Int)=  0.00038409
 Iteration  4 RMS(Cart)=  0.00000000 RMS(Int)=  0.00038409
[...]
   D19        3.14159  -0.00000   0.00000   0.00000   0.00000   3.14159
   D20        0.00000  -0.00000   0.00000   0.00000   0.00000   0.00000
   D21        0.00000   0.00000   0.00000   0.00000   0.00000   0.00000
   D22        3.14159   0.00000   0.00000   0.00000   0.00000   3.14159
   D23        0.00000  -0.00000   0.00000   0.00000   0.00000   0.00000
   D24        3.14159  -0.00000   0.00000   0.00000   0.00000   3.14159
   D25        0.00000  -0.00000   0.00000   0.00000   0.00000   0.00000
   D26        3.14159   0.00000   0.00000   0.00000   0.00000   3.14159
   D27        3.14159   0.00000   0.00000   0.00000   0.00000   3.14159
   D28        0.00000  -0.00000   0.00000   0.00000   0.00000   0.00000
   D29        0.00000   0.00000   0.00000   0.00000   0.00000   0.00000
   D30        0.00000   0.00000   0.00000   0.00000   0.00000   0.00000
   D31        3.14159  -0.00000   0.00000   0.00000   0.00000   3.14159
   D32        0.00000  -0.00000   0.00000   0.00000   0.00000   0.00000
   D33        0.00000  -0.00000   0.00000  -0.00000   0.00000   0.00000
   D34        0.00000   0.00000   0.00000  -0.00000   0.00000   0.00000
   D35        3.14159   0.00000   0.00000  -0.00000   0.00000   3.14159
   D36        3.14159  -0.00000   0.00000   0.00000   0.00000   3.14159
   D37        3.14159   0.00000   0.00000   0.00000   0.00000   3.14159
   D38        0.00000  -0.00000   0.00000   0.00000   0.00000   0.00000
   D39        0.00000  -0.00000   0.00000   0.00000   0.00000   0.00000
   D40        0.00000  -0.00000   0.00000   0.00000   0.00000   0.00000
   D41        3.14159  -0.00000   0.00000   0.00000   0.00000   3.14159
   D42        3.14159  -0.00000   0.00000  -0.00000   0.00000   3.14159
   D43        3.14159  -0.00000   0.00000  -0.00000   0.00000   3.14159
   D44        0.00000   0.00000   0.00000  -0.00000   0.00000   0.00000
   D45        0.00000  -0.00000   0.00000  -0.00000   0.00000   0.00000
   D46        0.00000   0.00000   0.00000  -0.00000   0.00000   0.00000
   D47        3.14159   0.00000   0.00000  -0.00000   0.00000   3.14159
   D48        3.14159  -0.00000   0.00000  -0.00000   0.00000   3.14159
   D49        3.14159   0.00000   0.00000  -0.00000   0.00000   3.14159
   D50        0.00000   0.00000   0.00000  -0.00000   0.00000   0.00000
         Item               Value     Threshold  Converged?
 Maximum Force            0.000170     0.000450     YES
 RMS     Force            0.000035     0.000300     YES
 Maximum Displacement     0.000879     0.001800     YES
 RMS     Displacement     0.000209     0.001200     YES
 Optimization completed.
    -- Stationary point found.
                           ----------------------------
                           !   Optimized Parameters   !
                           ! (Angstroms and Degrees)  !
 --------------------------                            --------------------------
 ! Name  Definition              Value          Derivative Info.                !
 --------------------------------------------------------------------------------
 ! R1    R(1,3)                  1.0818         -DE/DX =    0.0                 !
 ! R2    R(2,5)                  1.0818         -DE/DX =    0.0                 !
 ! R3    R(3,5)                  1.391          -DE/DX =   -0.0001              !
 ! R4    R(3,6)                  1.391          -DE/DX =   -0.0001              !
 ! R5    R(3,7)                  2.409          -DE/DX =    0.0001              !
 ! R6    R(3,8)                  2.409          -DE/DX =    0.0001              !
 ! R7    R(4,6)                  1.0818         -DE/DX =    0.0                 !
 ! R8    R(5,7)                  1.3907         -DE/DX =    0.0002              !
 ! R9    R(5,10)                 2.409          -DE/DX =    0.0001              !
 ! R10   R(6,8)                  1.3907         -DE/DX =    0.0002              !
 ! R11   R(6,10)                 2.409          -DE/DX =    0.0001              !
 ! R12   R(7,9)                  1.0818         -DE/DX =    0.0                 !
 ! R13   R(7,10)                 1.391          -DE/DX =   -0.0001              !
 ! R14   R(8,10)                 1.391          -DE/DX =   -0.0001              !
 ! R15   R(8,11)                 1.0818         -DE/DX =    0.0                 !
 ! R16   R(10,12)                1.0818         -DE/DX =    0.0                 !
 ! A1    A(1,3,5)              119.9992         -DE/DX =    0.0                 !
 ! A2    A(1,3,6)              119.9992         -DE/DX =    0.0                 !
 ! A3    A(1,3,7)              149.9957         -DE/DX =    0.0                 !
 ! A4    A(1,3,8)              149.9957         -DE/DX =    0.0                 !
 ! A5    A(5,3,6)              120.0016         -DE/DX =    0.0                 !
 ! A6    A(5,3,8)               90.0051         -DE/DX =    0.0                 !
 ! A7    A(6,3,7)               90.0051         -DE/DX =    0.0                 !
 ! A8    A(7,3,8)               60.0086         -DE/DX =    0.0                 !
 ! A9    A(2,5,3)              120.0175         -DE/DX =    0.0                 !
 ! A10   A(2,5,7)              119.9832         -DE/DX =    0.0                 !
 ! A11   A(2,5,10)             149.9875         -DE/DX =    0.0                 !
 ! A12   A(3,5,10)              89.9949         -DE/DX =    0.0                 !
 ! A13   A(3,6,4)              120.0175         -DE/DX =    0.0                 !
 ! A14   A(3,6,10)              89.9949         -DE/DX =    0.0                 !
 ! A15   A(4,6,8)              119.9832         -DE/DX =    0.0                 !
 ! A16   A(4,6,10)             149.9875         -DE/DX =    0.0                 !
 ! A17   A(3,7,9)              149.9875         -DE/DX =    0.0                 !
 ! A18   A(3,7,10)              89.9949         -DE/DX =    0.0                 !
 ! A19   A(5,7,9)              119.9832         -DE/DX =    0.0                 !
 ! A20   A(9,7,10)             120.0175         -DE/DX =    0.0                 !
 ! A21   A(3,8,10)              89.9949         -DE/DX =    0.0                 !
 ! A22   A(3,8,11)             149.9875         -DE/DX =    0.0                 !
 ! A23   A(6,8,11)             119.9832         -DE/DX =    0.0                 !
 ! A24   A(10,8,11)            120.0175         -DE/DX =    0.0                 !
 ! A25   A(5,10,6)              60.0086         -DE/DX =    0.0                 !
 ! A26   A(5,10,8)              90.0051         -DE/DX =    0.0                 !
 ! A27   A(5,10,12)            149.9957         -DE/DX =    0.0                 !
 ! A28   A(6,10,7)              90.0051         -DE/DX =    0.0                 !
 ! A29   A(6,10,12)            149.9957         -DE/DX =    0.0                 !
 ! A30   A(7,10,8)             120.0016         -DE/DX =    0.0                 !
 ! A31   A(7,10,12)            119.9992         -DE/DX =    0.0                 !
 ! A32   A(8,10,12)            119.9992         -DE/DX =    0.0                 !
 ! D1    D(1,3,5,2)              0.0            -DE/DX =    0.0                 !
 ! D2    D(1,3,5,10)           180.0            -DE/DX =    0.0                 !
 ! D3    D(6,3,5,2)            180.0            -DE/DX =    0.0                 !
 ! D4    D(6,3,5,10)             0.0            -DE/DX =    0.0                 !
 ! D5    D(8,3,5,2)            180.0            -DE/DX =    0.0                 !
 ! D6    D(8,3,5,10)             0.0            -DE/DX =    0.0                 !
 ! D7    D(1,3,6,4)              0.0            -DE/DX =    0.0                 !
 ! D8    D(1,3,6,10)           180.0            -DE/DX =    0.0                 !
 ! D9    D(5,3,6,4)            180.0            -DE/DX =    0.0                 !
 ! D10   D(5,3,6,10)             0.0            -DE/DX =    0.0                 !
 ! D11   D(7,3,6,4)            180.0            -DE/DX =    0.0                 !
 ! D12   D(7,3,6,10)             0.0            -DE/DX =    0.0                 !
 ! D13   D(1,3,7,9)              0.0            -DE/DX =    0.0                 !
 ! D14   D(1,3,7,10)           180.0            -DE/DX =    0.0                 !
 ! D15   D(6,3,7,9)            180.0            -DE/DX =    0.0                 !
 ! D16   D(6,3,7,10)             0.0            -DE/DX =    0.0                 !
 ! D17   D(8,3,7,9)            180.0            -DE/DX =    0.0                 !
 ! D18   D(8,3,7,10)             0.0            -DE/DX =    0.0                 !
 ! D19   D(1,3,8,10)           180.0            -DE/DX =    0.0                 !
 ! D20   D(1,3,8,11)             0.0            -DE/DX =    0.0                 !
 ! D21   D(5,3,8,10)             0.0            -DE/DX =    0.0                 !
 ! D22   D(5,3,8,11)           180.0            -DE/DX =    0.0                 !
 ! D23   D(7,3,8,10)             0.0            -DE/DX =    0.0                 !
 ! D24   D(7,3,8,11)           180.0            -DE/DX =    0.0                 !
 ! D25   D(2,5,7,9)              0.0            -DE/DX =    0.0                 !
 ! D26   D(2,5,10,6)           180.0            -DE/DX =    0.0                 !
 ! D27   D(2,5,10,8)           180.0            -DE/DX =    0.0                 !
 ! D28   D(2,5,10,12)            0.0            -DE/DX =    0.0                 !
 ! D29   D(3,5,10,6)             0.0            -DE/DX =    0.0                 !
 ! D30   D(3,5,10,8)             0.0            -DE/DX =    0.0                 !
 ! D31   D(3,5,10,12)          180.0            -DE/DX =    0.0                 !
 ! D32   D(4,6,8,11)             0.0            -DE/DX =    0.0                 !
 ! D33   D(3,6,10,5)             0.0            -DE/DX =    0.0                 !
 ! D34   D(3,6,10,7)             0.0            -DE/DX =    0.0                 !
 ! D35   D(3,6,10,12)          180.0            -DE/DX =    0.0                 !
 ! D36   D(4,6,10,5)           180.0            -DE/DX =    0.0                 !
 ! D37   D(4,6,10,7)           180.0            -DE/DX =    0.0                 !
 ! D38   D(4,6,10,12)            0.0            -DE/DX =    0.0                 !
 ! D39   D(3,7,10,6)             0.0            -DE/DX =    0.0                 !
 ! D40   D(3,7,10,8)             0.0            -DE/DX =    0.0                 !
 ! D41   D(3,7,10,12)          180.0            -DE/DX =    0.0                 !
 ! D42   D(9,7,10,6)           180.0            -DE/DX =    0.0                 !
 ! D43   D(9,7,10,8)           180.0            -DE/DX =    0.0                 !
 ! D44   D(9,7,10,12)            0.0            -DE/DX =    0.0                 !
 ! D45   D(3,8,10,5)             0.0            -DE/DX =    0.0                 !
 ! D46   D(3,8,10,7)             0.0            -DE/DX =    0.0                 !
 ! D47   D(3,8,10,12)          180.0            -DE/DX =    0.0                 !
 ! D48   D(11,8,10,5)          180.0            -DE/DX =    0.0                 !
 ! D49   D(11,8,10,7)          180.0            -DE/DX =    0.0                 !
 ! D50   D(11,8,10,12)           0.0            -DE/DX =    0.0                 !
 --------------------------------------------------------------------------------
 GradGradGradGradGradGradGradGradGradGradGradGradGradGradGradGradGradGrad

 Dipole is zero, so no output in dipole orientation.

 ----------------------------------------------------------------------

 Electric dipole moment (input orientation):
 (Debye = 10**-18 statcoulomb cm , SI units = C m)
                  (au)            (Debye)         (10**-30 SI)
   Tot        0.000000D+00      0.000000D+00      0.000000D+00
   x          0.000000D+00      0.000000D+00      0.000000D+00
   y          0.000000D+00      0.000000D+00      0.000000D+00
   z          0.000000D+00      0.000000D+00      0.000000D+00

 Dipole polarizability, Alpha (input orientation).
 (esu units = cm**3 , SI units = C**2 m**2 J**-1)
 Alpha(0;0):
               (au)            (10**-24 esu)      (10**-40 SI)
   iso        0.693272D+02      0.102732D+02      0.114305D+02
   aniso      0.368341D+02      0.545825D+01      0.607312D+01
   xx         0.816079D+02      0.120930D+02      0.134553D+02
   yx         0.000000D+00      0.000000D+00      0.000000D+00
   yy         0.816025D+02      0.120922D+02      0.134544D+02
   zx         0.000000D+00      0.000000D+00      0.000000D+00
   zy         0.000000D+00      0.000000D+00      0.000000D+00
   zz         0.447711D+02      0.663439D+01      0.738176D+01

 ----------------------------------------------------------------------
 1\1\NORTHEASTERN UNIVERSITY-D0022\Freq\RB3LYP\Aug-CC-pVTZ\C6H6\KAUFOLD
 .B\17-Jul-2022\0\\#T Geom=AllCheck Guess=TCheck SCRF=Check GenChk RB3L
 YP/Aug-CC-pVTZ Freq\\Benzene Optimization\\0,1\H,0.,2.4726640491,0.\H,
 2.1417031843,1.2359778683,0.\C,0.,1.390832831,0.\H,-2.1417031843,1.235
 9778683,0.\C,1.2046625352,0.6953425475,0.\C,-1.2046625352,0.6953425475
 ,0.\C,1.2046625352,-0.6953425475,0.\C,-1.2046625352,-0.6953425475,0.\H
 ,2.1417031843,-1.2359778683,0.\C,0.,-1.390832831,0.\H,-2.1417031843,-1
 .2359778683,0.\H,0.,-2.4726640491,0.\\Version=EM64L-G16RevA.03\State=1
 -AG\HF=-232.3355681\RMSD=2.535e-09\RMSF=7.663e-05\ZeroPoint=0.1003498\
 Thermal=0.1047326\Dipole=0.,0.,0.\DipoleDeriv=0.0621746,0.,0.,0.,-0.10
 49417,0.,0.,0.,0.1323054,-0.0631951,-0.0724197,0.,-0.072269,0.020469,0
 .,0.,0.,0.1322841,-0.0511669,0.,0.,0.,0.0937766,0.,0.,0.,-0.1322832,-0
 .063195,0.0724197,0.,0.0722691,0.020469,0.,0.,0.,0.1322841,0.0576913,0
 .0629119,0.,0.0626914,-0.0148865,0.,0.,0.,-0.1322953,0.0576912,-0.0629
 12,0.,-0.0626915,-0.0148864,0.,0.,0.,-0.1322953,0.0576913,-0.0629119,0
 .,-0.0626914,-0.0148864,0.,0.,0.,-0.1322953,0.0576912,0.0629119,0.,0.0
 626914,-0.0148864,0.,0.,0.,-0.1322953,-0.063195,0.0724197,0.,0.072269,
 0.020469,0.,0.,0.,0.1322841,-0.0511669,0.,0.,0.,0.0937766,0.,0.,0.,-0.
 1322832,-0.063195,-0.0724197,0.,-0.072269,0.020469,0.,0.,0.,0.1322841,
 0.0621746,0.,0.,0.,-0.1049417,0.,0.,0.,0.1323054\Polar=81.6078668,0.,8
 1.602546,0.,0.,44.771094\Quadrupole=1.8497927,1.8440478,-3.6938406,0.,
 0.,0.\PG=C02H [SGH(C6H6)]\NImag=0\\0.05849010,0.,0.35531779,0.,0.,0.02
 585871,0.00107407,0.00031049,0.,0.28119276,-0.00063326,0.00088852,0.,0
 .12851686,0.13266819,0.,0.,-0.00406693,0.,0.,0.02586902,-0.05977771,0.
 ,0.,-0.01913295,0.01494324,0.,0.65417925,0.,-0.33395576,0.,-0.01614059
 ,0.01191246,0.,0.,0.73688005,0.,0.,-0.03757711,0.,0.,0.00338277,0.,0.,
 0.13761302,0.00107407,-0.00031049,0.,-0.00101864,0.00080593,0.,-0.0191
 3295,0.01614059,0.,0.28119276,0.00063326,0.00088852,0.,-0.00080593,0.0
 0037735,0.,-0.01494325,0.01191246,0.,-0.12851686,0.13266819,0.,0.,-0.0
 0406693,0.,0.,0.00019841,0.,0.,0.00338278,0.,0.,0.02586902,0.00466949,
 -0.00239927,0.,-0.26550823,-0.11868258,0.,-0.27887192,0.11791874,0.,-0
 .00312142,-0.00326866,0.,0.71620949,0.02869715,-0.01190555,0.,-0.11871
 550,-0.12827449,0.,0.05381178,-0.17970429,0.,-0.00415942,-0.00071846,0
 .,0.03578549,0.67561757,0.,0.,0.00339041,0.,0.,-0.03759019,0.,0.,-0.06
 446326,0.,0.,0.00749003,0.,0.,0.13758512,0.00466949,0.00239927,0.,-0.0
 0312142,0.00326867,0.,-0.27887191,-0.11791875,0.,-0.26550823,0.1186825
 8,0.,-0.05914636,0.02328865,0.,0.71620949,-0.02869715,-0.01190556,0.,0
 .00415941,-0.00071845,0.,-0.05381178,-0.17970429,0.,0.11871550,-0.1282
 7449,0.,-0.02328864,0.06487585,0.,-0.03578550,0.67561754,0.,0.,0.00339
 041,0.,0.,0.00749004,0.,0.,-0.06446326,0.,0.,-0.03759019,0.,0.,0.00719
 169,0.,0.,0.13758513,-0.00453590,0.00334612,0.,0.00361351,-0.02931821,
 0.,0.03385274,0.03043251,0.,0.00020975,-0.00088404,0.,-0.13005348,0.03
 207733,0.,-0.01731767,-0.02958864,0.,0.71620949,0.00245301,0.00069344,
 0.,0.00179519,-0.01088041,0.,0.07700986,-0.02815921,0.,-0.00088393,-0.
 00081317,0.,-0.03207733,-0.32921578,0.,-0.02958864,-0.05151549,0.,-0.0
 3578550,0.67561754,0.,0.,0.00749045,0.,0.,0.00340403,0.,0.,0.00719742,
 0.,0.,-0.00106581,0.,0.,-0.06442605,0.,0.,-0.00620385,0.,0.,0.13758513
 ,-0.00453590,-0.00334612,0.,0.00020975,0.00088404,0.,0.03385274,-0.030
 43251,0.,0.00361351,0.02931821,0.,-0.01731767,0.02958865,0.,-0.1300534
 8,-0.03207733,0.,-0.05914636,-0.02328864,0.,0.71620949,-0.00245301,0.0
 0069344,0.,0.00088392,-0.00081317,0.,-0.07700986,-0.02815921,0.,-0.001
 79519,-0.01088041,0.,0.02958865,-0.05151550,0.,0.03207733,-0.32921578,
 0.,0.02328865,0.06487585,0.,0.03578549,0.67561757,0.,0.,0.00749045,0.,
 0.,-0.00106581,0.,0.,0.00719742,0.,0.,0.00340403,0.,0.,-0.00620385,0.,
 0.,-0.06442605,0.,0.,0.00719169,0.,0.,0.13758512,0.00002691,-0.0002008
 1,0.,0.00079987,0.00046855,0.,0.00189928,-0.00036595,0.,-0.00003493,0.
 00010209,0.,0.00361351,-0.00179519,0.,0.00020975,-0.00088393,0.,-0.265
 50823,0.11871550,0.,-0.00312142,-0.00415942,0.,0.28119276,0.00141103,-
 0.00067096,0.,-0.00046855,0.00116724,0.,-0.00125988,-0.00573925,0.,0.0
 0010209,0.00008297,0.,0.02931821,-0.01088041,0.,-0.00088404,-0.0008131
 7,0.,0.11868258,-0.12827449,0.,-0.00326866,-0.00071846,0.,-0.12851686,
 0.13266819,0.,0.,0.00019709,0.,0.,-0.00406884,0.,0.,0.00749034,0.,0.,-
 0.00123994,0.,0.,0.00340403,0.,0.,-0.00106581,0.,0.,-0.03759019,0.,0.,
 0.00749003,0.,0.,0.02586902,-0.00132331,0.,0.,0.00189928,0.00125988,0.
 ,-0.06857253,0.,0.,0.00189928,-0.00125988,0.,0.03385274,-0.07700986,0.
 ,0.03385274,0.07700986,0.,-0.27887191,-0.05381178,0.,-0.27887192,0.053
 81178,0.,-0.01913295,-0.01494325,0.,0.65417925,0.,0.00072119,0.,0.0003
 6595,-0.00573925,0.,0.,-0.00026490,0.,-0.00036595,-0.00573925,0.,-0.03
 043251,-0.02815921,0.,0.03043251,-0.02815921,0.,-0.11791875,-0.1797042
 9,0.,0.11791874,-0.17970429,0.,0.01614059,0.01191246,0.,0.,0.73688005,
 0.,0.,-0.00106515,0.,0.,0.00749034,0.,0.,-0.00618531,0.,0.,0.00749034,
 0.,0.,0.00719742,0.,0.,0.00719742,0.,0.,-0.06446326,0.,0.,-0.06446326,
 0.,0.,0.00338278,0.,0.,0.13761302,0.00002691,0.00020082,0.,-0.00003493
 ,-0.00010209,0.,0.00189928,0.00036595,0.,0.00079987,-0.00046855,0.,0.0
 0020975,0.00088392,0.,0.00361351,0.00179519,0.,-0.00312142,0.00415941,
 0.,-0.26550823,-0.11871550,0.,-0.00101864,-0.00080593,0.,-0.01913295,-
 0.01614059,0.,0.28119276,-0.00141103,-0.00067096,0.,-0.00010209,0.0000
 8297,0.,0.00125988,-0.00573925,0.,0.00046855,0.00116724,0.,0.00088404,
 -0.00081317,0.,-0.02931821,-0.01088041,0.,0.00326867,-0.00071845,0.,-0
 .11868258,-0.12827449,0.,0.00080593,0.00037735,0.,0.01494324,0.0119124
 6,0.,0.12851686,0.13266819,0.,0.,0.00019709,0.,0.,-0.00123994,0.,0.,0.
 00749034,0.,0.,-0.00406884,0.,0.,-0.00106581,0.,0.,0.00340403,0.,0.,0.
 00749004,0.,0.,-0.03759019,0.,0.,0.00019841,0.,0.,0.00338277,0.,0.,0.0
 2586902,0.00014179,0.,0.,0.00002691,-0.00141103,0.,-0.00132331,0.,0.,0
 .00002691,0.00141103,0.,-0.00453590,-0.00245301,0.,-0.00453590,0.00245
 301,0.,0.00466949,-0.02869715,0.,0.00466949,0.02869715,0.,0.00107407,0
 .00063326,0.,-0.05977771,0.,0.,0.00107407,-0.00063326,0.,0.05849010,0.
 ,-0.00009410,0.,0.00020082,-0.00067096,0.,0.,0.00072119,0.,-0.00020081
 ,-0.00067096,0.,-0.00334612,0.00069344,0.,0.00334612,0.00069344,0.,0.0
 0239927,-0.01190556,0.,-0.00239927,-0.01190555,0.,-0.00031049,0.000888
 52,0.,0.,-0.33395576,0.,0.00031049,0.00088852,0.,0.,0.35531779,0.,0.,-
 0.00123849,0.,0.,0.00019709,0.,0.,-0.00106515,0.,0.,0.00019709,0.,0.,0
 .00749045,0.,0.,0.00749045,0.,0.,0.00339041,0.,0.,0.00339041,0.,0.,-0.
 00406693,0.,0.,-0.03757711,0.,0.,-0.00406693,0.,0.,0.02585871\\0.,-0.0
 0002362,0.,-0.00000574,-0.00005683,0.,0.,-0.00006129,0.,0.00000574,-0.
 00005683,0.,0.00002063,-0.00021681,0.,-0.00002063,-0.00021681,0.,0.000
 02063,0.00021681,0.,-0.00002063,0.00021681,0.,-0.00000574,0.00005683,0
 .,0.,0.00006129,0.,0.00000574,0.00005683,0.,0.,0.00002362,0.\\\@


 A people that values its privileges above its principles soon loses both.
 -- Dwight D. Eisenhower
 Job cpu time:       0 days  1 hours 25 minutes 37.8 seconds.
 Elapsed time:       0 days  0 hours  5 minutes 23.9 seconds.
 File lengths (MBytes):  RWF=   1376 Int=      0 D2E=      0 Chk=     19 Scr=     32
 Normal termination of Gaussian 16 at Sun Jul 17 19:26:29 2022.
