   This run of MOLCAS is using the pymolcas driver

                             OPE
                             OPE          NMOL  CASOP  ENMOLC A   SO
                 OPE        NMOLC        AS  OP EN  MO LC     AS  OP
                OPENM       OL CA        SO  PE NM  OL CA     SOP EN
                OP EN      MO   LC       AS  OP ENMOL  CASO   PENMOL
                OP  EN     MO   LC       AS  OP EN     MO     LC ASO
               OP   E  NMOL  C  AS       OP  EN MO     LC     AS  OP
               OP  E   NMO   LC AS        OPEN  MO     LCASOP EN   M
               O  PEN   MO  LCA  SO
            OPE   NMO   L   CAS    OP
        OPENMOL  CASOP     ENMOL   CASOPE
     OPENMOLCA   SOPENMOLCASOPEN   MOLCASOPE
    OPENMOLCAS   OP           EN   MOL    CAS
    OPENMOLCAS       OP  ENM        O     LCA
    OPENMOLCAS    OPEN  MOLCASO     P  E  NMO
    OPENMOLCAS     OP               E  N  MOL
    OPENMOLCA   SO           PENM   O  L  CAS    OPEN    MO    LCAS
    OPENMOLCA   SOP           ENM   O  L  CAS   OP  EN  MOLC  AS   O
    OPENMOLCA   SOPE           NM      O  LCA   S      OP  EN MO
    OPENMOLC                AS         O  PEN   M      OL  CA  SOPE
    OPENMO        LCASOPE  NMOL        C  ASO   P      ENMOLC     AS
    OPE     NMO      LCA  SO     P     E   NM   OL  CA SO  PE N   MO
          OPENMOLCA            SOPE   NMO        LCAS  O    P  ENMO
     OPENMOLCASOPENMOLCASOPENMOLCASOPENMOLCA
        OPENMOLCASOPENMOLCASOPENMOLCASOPE
            OPENMOLCASOPENMOLCASOPENM
               OPENMOLCASOPENMOLCA        version: 22.02
                   OPENMOLCASO
                       OPE                tag: 112-ge90b629

 OpenMolcas is free software; you can redistribute it and/or modify it
 under the terms of the GNU Lesser General Public License version 2.1.
 OpenMolcas is distributed in the hope that it will be useful, but it
 is provided "as is" and without any express or implied warranties.
 For more details see the full text of the license in the file
 LICENSE or in <http://www.gnu.org/licenses/>.

                 Copyright (C) The OpenMolcas Authors
           For the author list and the recommended citation,
                   consult the file CONTRIBUTORS.md

           *************************************************
           * pymolcas version py2.22                       *
           *   build 8f5156e7c298caa029894eefd30f00af      *
           *   (after the EMIL interpreter by V. Veryazov) *
           *************************************************

configuration info
------------------
Host name: d3070 (Linux)
C Compiler ID: Intel
C flags: -O2 -fpic -march=skylake-avx512 -std=gnu99 -gcc-sys -qopenmp
Fortran Compiler ID: Intel
Fortran flags: -O2 -fpic -march=skylake-avx512  -fpp -i8 -r8 -heap-arrays -qopenmp
Definitions: _MOLCAS_;_I8_;_LINUX_;_MOLCAS_MPP_;_SCALAPACK_;_GA_
Parallel: ON (GA=ON)


   --------------------------------------------------------------------------------------
  |
  |              Project: ul-C1
  |       Submitted from: /work/donglab/kaufold.b/Label-Tutorial
  |         Scratch area: /scratch/kaufold.b/OpenMolcas/29131712_0/ul-C1
  |      Save outputs to: /work/donglab/kaufold.b/Label-Tutorial/ul-C1
  |               Molcas: /shared/centos7/openmolcas/22.02-intel-cascadelake-wfa
  |
  | Scratch area is empty
  |
  |       MOLCAS_DRIVER = /shared/centos7/openmolcas/22.02-intel-cascadelake-wfa/pymolcas
  | MOLCAS_KEEP_WORKDIR = NO
  |      MOLCAS_MAXITER = 10000
  |       MOLCAS_MAXMEM = 51975
  |       MOLCAS_MOLDEN = ON
  | MOLCAS_NEW_DEFAULTS = NO
  |       MOLCAS_NPROCS = 1
  |         MOLCAS_SAVE = ORIG
  |       MOLCAS_SOURCE = /shared/centos7/openmolcas/22.02-intel-cascadelake-wfa
  |    MOLCAS_STRUCTURE = 0
  |      MOLCAS_TIMELIM = 42960
  |     MOLCAS_VALIDATE = YES
  |
   --------------------------------------------------------------------------------------


--- Start Module: gateway at Mon Jul 18 13:57:55 2022 ---

-- Input validation for gateway
lxml python module not found, no validation possible
--
 
()()()()()()()()()()()()()()()()()()()()()()()()()()()()()()()()()()()()()()()()()()()()()()()()()()

                                              &GATEWAY

                       only a single process is used, running in SERIAL mode
                       available to each process: 46 GB of memory, 16 threads
                                            pid: 150089
()()()()()()()()()()()()()()()()()()()()()()()()()()()()()()()()()()()()()()()()()()()()()()()()()()
 
 
 Title:
                                    Benzene MR with Symmetry                            
 
 
++    Symmetry information:
      ---------------------
 
                    Character Table for C1 
 
                             E  
                    a        1  x, y, xy, Rz, z, xz, Ry, yz, Rx, I
--
 
 
++    Basis set information:
      ----------------------
 
 
      Basis set label: H.AUG-CC-PVTZ.........
 
      Electronic valence basis set:
      ------------------
      Associated Effective Charge   1.000000 au
      Associated Actual Charge      1.000000 au
      Nuclear Model: Point charge
 
      Shell  nPrim  nBasis  Cartesian Spherical Contaminant
         s       6       4        X                  
         p       3       3        X                  
         d       2       2                 X         
 
 
      Basis set label: C.AUG-CC-PVTZ.........
 
      Electronic valence basis set:
      ------------------
      Associated Effective Charge   6.000000 au
      Associated Actual Charge      6.000000 au
      Nuclear Model: Point charge
 
      Shell  nPrim  nBasis  Cartesian Spherical Contaminant
         s      11       5        X                  
         p       6       4        X                  
         d       3       3                 X         
         f       2       2                 X         
 
 
      Basis set label: H.AUG-CC-PVTZ.........
 
      Electronic valence basis set:
      ------------------
      Associated Effective Charge   1.000000 au
      Associated Actual Charge      1.000000 au
      Nuclear Model: Point charge
 
      Shell  nPrim  nBasis  Cartesian Spherical Contaminant
         s       6       4        X                  
         p       3       3        X                  
         d       2       2                 X         
 
 
      Basis set label: C.AUG-CC-PVTZ.........
 
      Electronic valence basis set:
      ------------------
      Associated Effective Charge   6.000000 au
      Associated Actual Charge      6.000000 au
      Nuclear Model: Point charge
 
      Shell  nPrim  nBasis  Cartesian Spherical Contaminant
         s      11       5        X                  
         p       6       4        X                  
         d       3       3                 X         
         f       2       2                 X         
 
 
      Basis set label: H.AUG-CC-PVTZ.........
 
      Electronic valence basis set:
      ------------------
      Associated Effective Charge   1.000000 au
      Associated Actual Charge      1.000000 au
      Nuclear Model: Point charge
 
      Shell  nPrim  nBasis  Cartesian Spherical Contaminant
         s       6       4        X                  
         p       3       3        X                  
         d       2       2                 X         
 
 
      Basis set label: C.AUG-CC-PVTZ.........
 
      Electronic valence basis set:
      ------------------
      Associated Effective Charge   6.000000 au
      Associated Actual Charge      6.000000 au
      Nuclear Model: Point charge
 
      Shell  nPrim  nBasis  Cartesian Spherical Contaminant
         s      11       5        X                  
         p       6       4        X                  
         d       3       3                 X         
         f       2       2                 X         
 
 
      Basis set label: H.AUG-CC-PVTZ.........
 
      Electronic valence basis set:
      ------------------
      Associated Effective Charge   1.000000 au
      Associated Actual Charge      1.000000 au
      Nuclear Model: Point charge
 
      Shell  nPrim  nBasis  Cartesian Spherical Contaminant
         s       6       4        X                  
         p       3       3        X                  
         d       2       2                 X         
--
 
 
++    Molecular structure info:
      -------------------------
 
                    ************************************************ 
                    **** Cartesian Coordinates / Bohr, Angstrom **** 
                    ************************************************ 
 
     Center  Label                x              y              z                     x              y              z
        1      H1               0.000000       4.672658       0.000000              0.000000       2.472664       0.000000
        2      H2               4.047232       2.335660       0.000000              2.141703       1.235978       0.000000
        3      C3               0.000000       2.628293       0.000000              0.000000       1.390833       0.000000
        4      H4              -4.047232       2.335660       0.000000             -2.141703       1.235978       0.000000
        5      C5               2.276482       1.314007       0.000000              1.204663       0.695343       0.000000
        6      C6              -2.276482       1.314007       0.000000             -1.204663       0.695343       0.000000
        7      C7               2.276482      -1.314007       0.000000              1.204663      -0.695343       0.000000
        8      C8              -2.276482      -1.314007       0.000000             -1.204663      -0.695343       0.000000
        9      H9               4.047232      -2.335660       0.000000              2.141703      -1.235978       0.000000
       10      C10              0.000000      -2.628293       0.000000              0.000000      -1.390833       0.000000
       11      H11             -4.047232      -2.335660       0.000000             -2.141703      -1.235978       0.000000
       12      H12              0.000000      -4.672658       0.000000              0.000000      -2.472664       0.000000
 
                    *************************************** 
                    *    InterNuclear Distances / Bohr    * 
                    *************************************** 
 
               1 H1            2 H2            3 C3            4 H4            5 C5            6 C6    
    1 H1       0.000000
    2 H2       4.673505        0.000000
    3 C3       2.044365        4.057798        0.000000
    4 H4       4.673505        8.094465        4.057798        0.000000
    5 C5       4.057451        2.044341        2.628635        6.405712        0.000000
    6 C6       4.057451        6.405712        2.628635        2.044341        4.552965        0.000000
    7 C7       6.404883        4.056553        4.552373        7.301331        2.628014        5.256990
    8 C8       6.404883        7.301331        4.552373        4.056553        5.256990        2.628014
    9 H9       8.092997        4.671319        6.404757        9.345672        4.056553        7.301331
   10 C10      7.300951        6.404757        5.256586        6.404757        4.552373        4.552373
   11 H11      8.092997        9.345672        6.404757        4.671319        7.301331        4.056553
   12 H12      9.345316        8.092997        7.300951        8.092997        6.404883        6.404883
 
               7 C7            8 C8            9 H9           10 C10          11 H11          12 H12   
    7 C7       0.000000
    8 C8       4.552965        0.000000
    9 H9       2.044341        6.405712        0.000000
   10 C10      2.628635        2.628635        4.057798        0.000000
   11 H11      6.405712        2.044341        8.094465        4.057798        0.000000
   12 H12      4.057451        4.057451        4.673505        2.044365        4.673505        0.000000
 
                    ******************************************* 
                    *    InterNuclear Distances / Angstrom    * 
                    ******************************************* 
 
               1 H1            2 H2            3 C3            4 H4            5 C5            6 C6    
    1 H1       0.000000
    2 H2       2.473112        0.000000
    3 C3       1.081831        2.147294        0.000000
    4 H4       2.473112        4.283406        2.147294        0.000000
    5 C5       2.147111        1.081819        1.391014        3.389757        0.000000
    6 C6       2.147111        3.389757        1.391014        1.081819        2.409325        0.000000
    7 C7       3.389318        2.146635        2.409012        3.863698        1.390685        2.781879
    8 C8       3.389318        3.863698        2.409012        2.146635        2.781879        1.390685
    9 H9       4.282630        2.471956        3.389252        4.945517        2.146635        3.863698
   10 C10      3.863497        3.389252        2.781666        3.389252        2.409012        2.409012
   11 H11      4.282630        4.945517        3.389252        2.471956        3.863698        2.146635
   12 H12      4.945328        4.282630        3.863497        4.282630        3.389318        3.389318
 
               7 C7            8 C8            9 H9           10 C10          11 H11          12 H12   
    7 C7       0.000000
    8 C8       2.409325        0.000000
    9 H9       1.081819        3.389757        0.000000
   10 C10      1.391014        1.391014        2.147294        0.000000
   11 H11      3.389757        1.081819        4.283406        2.147294        0.000000
   12 H12      2.147111        2.147111        2.473112        1.081831        2.473112        0.000000
 
                    ************************************** 
                    *    Valence Bond Angles / Degree    * 
                    ************************************** 
                          Atom centers                 Phi
                      1 H1       3 C3       5 C5       120.00
                      1 H1       3 C3       6 C6       120.00
                      5 C5       3 C3       6 C6       120.00
                      2 H2       5 C5       3 C3       120.02
                      2 H2       5 C5       7 C7       119.98
                      3 C3       5 C5       7 C7       120.00
                      3 C3       6 C6       4 H4       120.02
                      3 C3       6 C6       8 C8       120.00
                      4 H4       6 C6       8 C8       119.98
                      5 C5       7 C7       9 H9       119.98
                      5 C5       7 C7      10 C10      120.00
                      9 H9       7 C7      10 C10      120.02
                      6 C6       8 C8      10 C10      120.00
                      6 C6       8 C8      11 H11      119.98
                     10 C10      8 C8      11 H11      120.02
                      7 C7      10 C10      8 C8       120.00
                      7 C7      10 C10     12 H12      120.00
                      8 C8      10 C10     12 H12      120.00
 
           ***************************************************************
           *              Valence Dihedral Angles / Degree               *
           ***************************************************************
                    Atom centers                       Phi1     Phi2     Theta 
           1 H1       3 C3       5 C5       2 H2        120.00   120.02     0.00
           1 H1       3 C3       5 C5       7 C7        120.00   120.00  -180.00
           6 C6       3 C3       5 C5       7 C7        120.00   120.00     0.00
           1 H1       3 C3       6 C6       4 H4        120.00   120.02     0.00
           1 H1       3 C3       6 C6       8 C8        120.00   120.00  -180.00
           5 C5       3 C3       6 C6       8 C8        120.00   120.00     0.00
           2 H2       5 C5       3 C3       6 C6        120.02   120.00  -180.00
           2 H2       5 C5       7 C7       9 H9        119.98   119.98     0.00
           2 H2       5 C5       7 C7      10 C10       119.98   120.00  -180.00
           3 C3       5 C5       7 C7       9 H9        120.00   119.98  -180.00
           3 C3       5 C5       7 C7      10 C10       120.00   120.00     0.00
           4 H4       6 C6       3 C3       5 C5        120.02   120.00  -180.00
           3 C3       6 C6       8 C8      10 C10       120.00   120.00     0.00
           3 C3       6 C6       8 C8      11 H11       120.00   119.98  -180.00
           4 H4       6 C6       8 C8      10 C10       119.98   120.00  -180.00
           4 H4       6 C6       8 C8      11 H11       119.98   119.98     0.00
           5 C5       7 C7      10 C10      8 C8        120.00   120.00     0.00
           5 C5       7 C7      10 C10     12 H12       120.00   120.00  -180.00
           9 H9       7 C7      10 C10     12 H12       120.02   120.00     0.00
           6 C6       8 C8      10 C10      7 C7        120.00   120.00     0.00
           6 C6       8 C8      10 C10     12 H12       120.00   120.00  -180.00
          11 H11      8 C8      10 C10     12 H12       120.02   120.00     0.00
           8 C8      10 C10      7 C7       9 H9        120.00   120.02  -180.00
           7 C7      10 C10      8 C8      11 H11       120.00   120.02  -180.00
--
 
 
            Nuclear Potential Energy            204.04227156 au
 
The total execution time is limited to 42960 seconds.
--- Stop Module: gateway at Mon Jul 18 13:57:56 2022 /rc=_RC_ALL_IS_WELL_ ---
*** files: xmldump
    saved to directory /work/donglab/kaufold.b/Label-Tutorial/ul-C1

--- Start Module: seward at Mon Jul 18 13:57:56 2022 ---

-- Input validation for seward
lxml python module not found, no validation possible
--
 
()()()()()()()()()()()()()()()()()()()()()()()()()()()()()()()()()()()()()()()()()()()()()()()()()()

                                              &SEWARD

                       only a single process is used, running in SERIAL mode
                       available to each process: 46 GB of memory, 16 threads
                                            pid: 150092
()()()()()()()()()()()()()()()()()()()()()()()()()()()()()()()()()()()()()()()()()()()()()()()()()()
 
               SEWARD will generate:
                  Multipole Moment integrals up to order  2
                  Kinetic Energy integrals
                  Nuclear Attraction integrals (point charge)
                  One-Electron Hamiltonian integrals
                  Velocity integrals
                  Orbital angular momentum around ( 0.0000  0.0000  0.0000 )
                  Velocity quadrupole around ( 0.0000  0.0000  0.0000 )
                  Two-Electron Repulsion integrals
 
 Title:
                                    Benzene MR with Symmetry                            
 
 
                   Integrals are discarded if absolute value <: 0.10E-13
                   Integral cutoff threshold is set to       <: 0.10E-15
 
            Nuclear Potential Energy            204.04227156 au
 
 
      Basis set specifications :
      Symmetry species         a  
      Basis functions          414
 
 
      Input file to MOLDEN was generated!
 
The total execution time is limited to 42960 seconds.
--- Stop Module: seward at Mon Jul 18 15:00:41 2022 /rc=_RC_ALL_IS_WELL_ ---
*** files: ul-C1.GssOrb ul-C1.guessorb.h5 ul-C1.guessorb.molden xmldump
    saved to directory /work/donglab/kaufold.b/Label-Tutorial/ul-C1
--- Module seward spent 1 hour 2 minutes 44 seconds ---

*** symbolic link created: INPORB -> ul-C1.GssOrb
--- Start Module: rasscf at Mon Jul 18 15:00:41 2022 ---

-- Input validation for rasscf
lxml python module not found, no validation possible
--
 
()()()()()()()()()()()()()()()()()()()()()()()()()()()()()()()()()()()()()()()()()()()()()()()()()()

                                              &RASSCF

                       only a single process is used, running in SERIAL mode
                       available to each process: 46 GB of memory, 16 threads
                                            pid: 156365
()()()()()()()()()()()()()()()()()()()()()()()()()()()()()()()()()()()()()()()()()()()()()()()()()()
 
 
      Header of the ONEINT file:
      --------------------------
      
      Integrals generated by Gateway/Seward, Mon Jul 18 13:57:56 2022
 
 
      OrdInt status: non-squared
 
 
      Cartesian coordinates in Angstrom:
      -----------------------------------------------------
      No.  Label        X            Y            Z        
      -----------------------------------------------------
       1   H1         0.00000000   2.47266405   0.00000000
       2   H2         2.14170318   1.23597787   0.00000000
       3   C3         0.00000000   1.39083283   0.00000000
       4   H4        -2.14170318   1.23597787   0.00000000
       5   C5         1.20466254   0.69534255   0.00000000
       6   C6        -1.20466254   0.69534255   0.00000000
       7   C7         1.20466254  -0.69534255   0.00000000
       8   C8        -1.20466254  -0.69534255   0.00000000
       9   H9         2.14170318  -1.23597787   0.00000000
      10   C10        0.00000000  -1.39083283   0.00000000
      11   H11       -2.14170318  -1.23597787   0.00000000
      12   H12        0.00000000  -2.47266405   0.00000000
      -----------------------------------------------------
      Nuclear repulsion energy =  204.04227156
 
++    Wave function specifications:
      -----------------------------
 
      Number of closed shell electrons          36
      Number of electrons in active shells       6
      Max number of holes in RAS1 space          0
      Max nr of electrons in RAS3 space          0
      Number of inactive orbitals               18
      Number of active orbitals                  6
      Number of secondary orbitals             390
      Spin quantum number                      0.0
      State symmetry                             1
--
 
++    Orbital specifications:
      -----------------------
 
      Symmetry species                           1
                                                 a
      Frozen orbitals                            0
      Inactive orbitals                         18
      Active orbitals                            6
      RAS1 orbitals                              0
      RAS2 orbitals                              6
      RAS3 orbitals                              0
      Secondary orbitals                       390
      Deleted orbitals                           0
      Number of basis functions                414
--
 
++    CI expansion specifications:
      ----------------------------
 
      Number of CSFs                           175
      Number of determinants                   210
      Number of root(s) required                 6
      Root chosen for geometry opt.              6
      CI roots used                              1     2     3     4     5     6
      weights                                0.167 0.167 0.167 0.167 0.167 0.167
      highest root included in the CI            6
      max. size of the explicit Hamiltonian    175
--
 
++    Optimization specifications:
      ----------------------------
 
      RASSCF algorithm: Conventional
      Maximum number of macro iterations       200
      Maximum number of SX iterations          100
      Threshold for RASSCF energy            0.100E-07
      Threshold for max MO rotation          0.100E+00
      Threshold for max BLB element          0.100E-03
      Level shift parameter                  0.500E+00
      Make Quasi-Newton update
--
 
      The MO-coefficients are taken from the file:
      /work/donglab/kaufold.b/Label-Tutorial/unlabeled-C1.ScfOrb                                                                                                                                                                                                      
      Title: RKS-DFT orbitals / B3LYP                                                      
 
      Total molecular charge    0.00
 
      ************************************************************************************************************************
      *                                                                                                                      *
      *                                            Wave function control section                                             *
      *                                                                                                                      *
      ************************************************************************************************************************
 
 
                                         RASSCF iterations: Energy and convergence statistics
                                         ----------------------------------------------------
 
      Iter CI   SX   CI       RASSCF       Energy    max ROT     max BLB   max BLB  Level Ln srch  Step   QN   Walltime
          iter iter root      energy       change     param      element    value   shift minimum  type update hh:mm:ss
 Nr of preliminary CI iterations:   1
        1   1    7    0  -230.54299496    0.00E+00   0.20E-01    8 413 1 -0.87E-01*  0.44   0.00    SX    NO    0:03:49
        2   1    7    0  -230.57984641   -0.37E-01* -0.17E-01   17 253 1  0.14E-01*  0.45   0.00    SX    NO    0:02:05
        3   1    6    0  -230.58291273   -0.31E-02*  0.23E-01   12  84 1  0.67E-02*  0.45   0.00    SX    NO    0:02:18
        4   1    7    0  -230.58356603   -0.65E-03*  0.34E-01   12  84 1  0.34E-02*  0.45   0.00    SX    NO    0:02:22
        5   1    7    0  -230.58378531   -0.22E-03*  0.46E-01   24  31 1 -0.23E-02*  0.45   2.50    LS   YES    0:02:05
        6   1    7    0  -230.58392863   -0.14E-03*  0.76E-01   24  31 1 -0.19E-02*  0.45   1.32    QN   YES    0:01:50
 ###############################################################################
 ###############################################################################
 ###                                                                         ###
 ###                                                                         ###
 ###    WARNING: Large orbital rotation.                                     ###
 ###                                                                         ###
 ###                                                                         ###
 ###############################################################################
 ###############################################################################
      Molecular orbital  17 of symmetry 1 MO space 1  weight is    0.029250
 ###############################################################################
 ###############################################################################
 ###                                                                         ###
 ###                                                                         ###
 ###    WARNING: Large orbital rotation.                                     ###
 ###                                                                         ###
 ###                                                                         ###
 ###############################################################################
 ###############################################################################
      Molecular orbital  19 of symmetry 1 MO space 2  weight is    0.028050
        7   1    7    0  -230.58402515   -0.97E-04*  0.99E+00*  24  31 1 -0.16E-02*  0.45   1.32    QN   YES    0:01:31
        8   1    6    0  -230.60306298   -0.19E-01* -0.78E-01   19  74 1 -0.61E-02*  0.45   0.00    SX    NO    0:01:28
        9   1    6    0  -230.60399703   -0.93E-03* -0.93E-01   19  74 1 -0.30E-02*  0.45   2.50    LS   YES    0:01:46
       10   1    6    0  -230.60453480   -0.54E-03* -0.36E-01   22  42 1 -0.17E-02*  0.45   1.31    QN   YES    0:01:42
       11   1    5    0  -230.60467131   -0.14E-03*  0.13E-01   22  42 1 -0.11E-02*  0.45   1.59    QN   YES    0:01:40
       12   1    5    0  -230.60473646   -0.65E-04*  0.11E-01   24  31 1 -0.83E-03*  0.45   1.58    QN   YES    0:01:51
       13   1    6    0  -230.60478172   -0.45E-04*  0.16E-01   21  48 1 -0.77E-02*  0.39   2.50    LS   YES    0:01:15
       14   1    6    0  -230.60487568   -0.94E-04* -0.12E+00*  15  58 1 -0.82E-02*  0.39   2.50    QN   YES    0:01:24
       15   1    7    0  -230.60446478    0.41E-03* -0.53E-01   21  48 1 -0.77E-02*  0.40   0.42    QN   YES    0:01:55
       16   1    6    0  -230.60598388   -0.15E-02* -0.28E-01   21  48 1 -0.43E-02*  0.40   1.59    LS   YES    0:01:55
       17   1    6    0  -230.60622277   -0.24E-03* -0.35E-01   18  65 1  0.32E-02*  0.40   1.10    QN   YES    0:01:53
       18   1    6    0  -230.60639882   -0.18E-03*  0.25E-01   18  65 1  0.34E-02*  0.40   1.50    QN   YES    0:01:53
       19   1    5    0  -230.60648296   -0.84E-04*  0.12E-01   15  58 1 -0.30E-02*  0.40   1.58    QN   YES    0:01:32
       20   1    6    0  -230.60651794   -0.35E-04*  0.50E-02   15  58 1 -0.24E-02*  0.40   1.56    QN   YES    0:01:47
       21   1    6    0  -230.60653761   -0.20E-04* -0.35E-02   15  58 1 -0.18E-02*  0.40   1.91    QN   YES    0:01:44
       22   1    5    0  -230.60655521   -0.18E-04*  0.43E-02   15  58 1 -0.12E-02*  0.40   1.64    QN   YES    0:01:23
       23   1    5    0  -230.60656660   -0.11E-04*  0.43E-02   18  65 1  0.67E-03*  0.40   1.68    QN   YES    0:01:48
       24   1    5    0  -230.60657407   -0.75E-05* -0.29E-02   18  65 1  0.31E-03*  0.40   1.54    QN   YES    0:01:37
       25   1    5    0  -230.60657734   -0.33E-05* -0.16E-02   21  45 1  0.22E-03*  0.40   1.45    QN   YES    0:01:43
       26   1    4    0  -230.60657828   -0.95E-06*  0.57E-03   21  45 1  0.10E-03*  0.40   1.34    QN   YES    0:01:39
       27   1    4    0  -230.60657849   -0.21E-06* -0.41E-03   13  20 1 -0.33E-04   0.40   1.38    QN   YES    0:01:46
       28   1    4    0  -230.60657855   -0.65E-07* -0.32E-03   12  23 1 -0.24E-04   0.40   1.49    QN   YES    0:01:45
       29   1    4    0  -230.60657858   -0.30E-07*  0.23E-03   21  45 1 -0.20E-04   0.40   1.53    QN   YES    0:01:34
       30   1    4    0  -230.60657860   -0.13E-07*  0.13E-03   21  45 1 -0.12E-04   0.40   1.50    QN   YES    0:01:30
       31   1    3    0  -230.60657860   -0.50E-08   0.60E-04   22  42 1  0.56E-05   0.40   1.45    QN   YES    0:01:33
      Convergence after 31 iterations
       32   1    3    0  -230.60657860   -0.17E-08   0.60E-04   12  23 1  0.33E-05   0.40   1.45    QN   YES    0:01:35
 
      ************************************************************************************************************************
                                                      Wave function printout:
                       occupation of active orbitals, and spin coupling of open shells (u,d: Spin up or down)
      ************************************************************************************************************************
 
      Note: transformation to natural orbitals
      has been made, which may change the order of the CSFs.
 
      printout of CI-coefficients larger than  0.05 for root  1
      energy=    -230.813306
      conf/sym  111111     Coeff  Weight
             1  222000  -0.97003 0.94097
            11  220200   0.11838 0.01401
            13  220020   0.05242 0.00275
            18  2udud0   0.06587 0.00434
            29  202200   0.05243 0.00275
            31  202020   0.11825 0.01398
            47  2uudd0  -0.13239 0.01753
 
      printout of CI-coefficients larger than  0.05 for root  2
      energy=    -230.598375
      conf/sym  111111     Coeff  Weight
             3  22u0d0  -0.67451 0.45496
             5  2u2d00   0.67457 0.45505
            24  u2dud0  -0.19690 0.03877
            35  ud2200  -0.13925 0.01939
            37  ud2020   0.13914 0.01936
            88  02u2d0  -0.06992 0.00489
           113  0u2d20  -0.06989 0.00488
 
      printout of CI-coefficients larger than  0.05 for root  3
      energy=    -230.596088
      conf/sym  111111     Coeff  Weight
             4  22u00d  -0.96592 0.93300
            26  u2du0d  -0.12171 0.01481
            39  ud20ud   0.12163 0.01479
            59  2u0dud  -0.08665 0.00751
            74  20u20d  -0.06799 0.00462
            77  20u02d  -0.11593 0.01344
            90  02u20d  -0.05455 0.00298
 
      printout of CI-coefficients larger than  0.05 for root  4
      energy=    -230.595992
      conf/sym  111111     Coeff  Weight
             7  2u200d   0.96589 0.93295
            27  u2d0ud  -0.12171 0.01481
            38  ud2u0d  -0.12174 0.01482
            58  2u020d  -0.11604 0.01347
            61  2u002d  -0.06797 0.00462
            75  20udud   0.05270 0.00278
            76  20uudd  -0.06961 0.00485
           117  0u202d   0.05454 0.00297
 
      printout of CI-coefficients larger than  0.05 for root  5
      energy=    -230.543000
      conf/sym  111111     Coeff  Weight
             2  22ud00  -0.69034 0.47658
             6  2u20d0  -0.68859 0.47415
            23  u2d200  -0.10586 0.01121
            25  u2d020   0.10555 0.01114
            36  ud2ud0   0.14953 0.02236
 
      printout of CI-coefficients larger than  0.05 for root  6
      energy=    -230.492712
      conf/sym  111111     Coeff  Weight
            10  u2200d  -0.82111 0.67422
            14  220u0d  -0.26699 0.07128
            21  2ud0ud   0.37703 0.14215
            32  202u0d   0.26662 0.07109
            66  u2020d   0.08856 0.00784
            69  u2002d   0.06438 0.00414
            83  ududud   0.06810 0.00464
           106  u0220d   0.06438 0.00415
           109  u0202d   0.08850 0.00783
           156  uuuddd  -0.08806 0.00776
 
      Natural orbitals and occupation numbers for root  1
      sym 1:   1.994775   1.942468   1.942407   0.060201   0.060140   0.000009
 
      Natural orbitals and occupation numbers for root  2
      sym 1:   1.902931   1.497269   1.497331   0.551307   0.551154   0.000008
 
      Natural orbitals and occupation numbers for root  3
      sym 1:   1.953302   1.936403   1.009512   0.042364   0.058418   1.000000
 
      Natural orbitals and occupation numbers for root  4
      sym 1:   1.953281   1.009538   1.936334   0.058163   0.042684   1.000000
 
      Natural orbitals and occupation numbers for root  5
      sym 1:   1.946310   1.501131   1.498719   0.528192   0.525641   0.000008
 
      Natural orbitals and occupation numbers for root  6
      sym 1:   1.282956   1.673893   1.673484   0.184955   0.184712   1.000000
 
      ************************************************************************************************************************
      *                                                                                                                      *
      *                                                    Final results                                                     *
      *                                                                                                                      *
      ************************************************************************************************************************
 
 
++    Wave function specifications:
      -----------------------------
 
      Number of closed shell electrons          36
      Number of electrons in active shells       6
      Max number of holes in RAS1 space          0
      Max nr of electrons in RAS3 space          0
      Number of inactive orbitals               18
      Number of active orbitals                  6
      Number of secondary orbitals             390
      Spin quantum number                      0.0
      State symmetry                             1
--
 
++    Orbital specifications:
      -----------------------
 
      Symmetry species                           1
                                                 a
      Frozen orbitals                            0
      Inactive orbitals                         18
      Active orbitals                            6
      RAS1 orbitals                              0
      RAS2 orbitals                              6
      RAS3 orbitals                              0
      Secondary orbitals                       390
      Deleted orbitals                           0
      Number of basis functions                414
--
 
++    CI expansion specifications:
      ----------------------------
 
      Number of CSFs                           175
      Number of determinants                   210
      Number of root(s) required                 6
      CI roots used                              1     2     3     4     5     6
      weights                                0.167 0.167 0.167 0.167 0.167 0.167
      highest root included in the CI            6
      Root passed to geometry opt.               6
--
 
++    Final optimization conditions:
      ------------------------------
 
      Average CI energy                            -230.60657860
      RASSCF energy for state  6                   -230.49271157
      Super-CI energy                                -0.00000000
      RASSCF energy change                           -0.00000000
      Max change in MO coefficients              -0.183E-03
      Max non-diagonal density matrix element     0.598E-04
      Maximum BLB matrix element                  0.325E-05
      (orbital pair  12,  23 in symmetry   1)
      Norm of electronic gradient            0.140E+00
--
 
 
      Final state energy(ies):
      ------------------------
 
::    RASSCF root number  1 Total energy:   -230.81330597
::    RASSCF root number  2 Total energy:   -230.59837487
::    RASSCF root number  3 Total energy:   -230.59608788
::    RASSCF root number  4 Total energy:   -230.59599175
::    RASSCF root number  5 Total energy:   -230.54299957
::    RASSCF root number  6 Total energy:   -230.49271157
 
++    Molecular orbitals:
      -------------------
 
      Pseudonatural active orbitals and approximate occupation numbers
 
 
      MOLECULAR ORBITALS FOR SYMMETRY SPECIES 1: a  
 
      INDEX  ENERGY  OCCUPATION COEFFICIENTS ...
          1  -11.2871    2.0000                                                                                                           
                47 C3     1s     ( 0.4149) 116 C5     1s     ( 0.4056) 162 C6     1s     ( 0.4056) 208 C7     1s     ( 0.4056)
               254 C8     1s     ( 0.4056) 323 C10    1s     ( 0.4149)
          2  -11.2866    2.0000                                                                                                           
                47 C3     1s     (-0.5824) 116 C5     1s     (-0.2845) 162 C6     1s     (-0.2845) 208 C7     1s     ( 0.2845)
               254 C8     1s     ( 0.2845) 323 C10    1s     ( 0.5824)
          3  -11.2865    2.0000                                                                                                           
               116 C5     1s     (-0.5006) 162 C6     1s     ( 0.5006) 208 C7     1s     (-0.5006) 254 C8     1s     ( 0.5006)
      
          4  -11.2853    2.0000                                                                                                           
                47 C3     1s     (-0.5729) 116 C5     1s     ( 0.2930) 162 C6     1s     ( 0.2930) 208 C7     1s     ( 0.2930)
               254 C8     1s     ( 0.2930) 323 C10    1s     (-0.5729)
          5  -11.2853    2.0000                                                                                                           
               116 C5     1s     ( 0.5000) 162 C6     1s     (-0.5000) 208 C7     1s     (-0.5000) 254 C8     1s     ( 0.5000)
      
          6  -11.2847    2.0000                                                                                                           
                47 C3     1s     (-0.4024) 116 C5     1s     ( 0.4119) 162 C6     1s     ( 0.4119) 208 C7     1s     (-0.4119)
               254 C8     1s     (-0.4119) 323 C10    1s     ( 0.4024)
          7   -1.2041    2.0000                                                                                                           
                48 C3     2s     ( 0.3670) 117 C5     2s     ( 0.3671) 163 C6     2s     ( 0.3671) 209 C7     2s     ( 0.3671)
               255 C8     2s     ( 0.3671) 324 C10    2s     ( 0.3670)
          8   -1.0650    2.0000                                                                                                           
                24 H2     1s     ( 0.1608)  26 H2     *s     (-0.1327)  52 C3     2px    ( 0.1771)  93 H4     1s     (-0.1608)
                95 H4     *s     ( 0.1327) 117 C5     2s     ( 0.4549) 163 C6     2s     (-0.4549) 209 C7     2s     ( 0.4549)
               255 C8     2s     (-0.4549) 300 H9     1s     ( 0.1608) 302 H9     *s     (-0.1327) 328 C10    2px    ( 0.1771)
               369 H11    1s     (-0.1608) 371 H11    *s     ( 0.1327)
          9   -1.0649    2.0000                                                                                                           
                 1 H1     1s     (-0.1858)   3 H1     *s     ( 0.1526)  48 C3     2s     (-0.5253)  50 C3     *s     ( 0.1030)
               117 C5     2s     (-0.2626) 125 C5     2py    (-0.1204) 163 C6     2s     (-0.2626) 171 C6     2py    (-0.1204)
               209 C7     2s     ( 0.2626) 217 C7     2py    (-0.1204) 255 C8     2s     ( 0.2626) 263 C8     2py    (-0.1204)
               324 C10    2s     ( 0.5253) 326 C10    *s     (-0.1030) 392 H12    1s     ( 0.1858) 394 H12    *s     (-0.1526)
      
         10   -0.8730    2.0000                                                                                                           
                 1 H1     1s     (-0.2758)   3 H1     *s     ( 0.1389)  24 H2     1s     ( 0.1380)  48 C3     2s     (-0.4240)
                93 H4     1s     ( 0.1380) 117 C5     2s     ( 0.2120) 121 C5     2px    ( 0.1789) 125 C5     2py    (-0.2208)
               163 C6     2s     ( 0.2120) 167 C6     2px    (-0.1789) 171 C6     2py    (-0.2208) 209 C7     2s     ( 0.2120)
               213 C7     2px    ( 0.1789) 217 C7     2py    ( 0.2208) 255 C8     2s     ( 0.2120) 259 C8     2px    (-0.1789)
               263 C8     2py    ( 0.2208) 300 H9     1s     ( 0.1380) 324 C10    2s     (-0.4240) 369 H11    1s     ( 0.1380)
               392 H12    1s     (-0.2758) 394 H12    *s     ( 0.1389)
         11   -0.8729    2.0000                                                                                                           
                24 H2     1s     (-0.2389)  26 H2     *s     ( 0.1201)  52 C3     2px    (-0.3240)  93 H4     1s     ( 0.2389)
                95 H4     *s     (-0.1201) 117 C5     2s     (-0.3672) 125 C5     2py    (-0.1788) 163 C6     2s     ( 0.3672)
               171 C6     2py    ( 0.1788) 209 C7     2s     ( 0.3672) 217 C7     2py    (-0.1788) 255 C8     2s     (-0.3672)
               263 C8     2py    ( 0.1788) 300 H9     1s     ( 0.2389) 302 H9     *s     (-0.1201) 328 C10    2px    ( 0.3240)
               369 H11    1s     (-0.2389) 371 H11    *s     ( 0.1201)
         12   -0.7580    2.0000                                                                                                           
                 1 H1     1s     ( 0.2816)   3 H1     *s     (-0.1187)  24 H2     1s     ( 0.2815)  26 H2     *s     (-0.1186)
                56 C3     2py    ( 0.2977)  93 H4     1s     ( 0.2815)  95 H4     *s     (-0.1186) 121 C5     2px    ( 0.2577)
               125 C5     2py    ( 0.1489) 167 C6     2px    (-0.2577) 171 C6     2py    ( 0.1489) 213 C7     2px    ( 0.2577)
               217 C7     2py    (-0.1489) 259 C8     2px    (-0.2577) 263 C8     2py    (-0.1489) 300 H9     1s     ( 0.2815)
               302 H9     *s     (-0.1186) 332 C10    2py    (-0.2977) 369 H11    1s     ( 0.2815) 371 H11    *s     (-0.1186)
               392 H12    1s     ( 0.2816) 394 H12    *s     (-0.1187)
         13   -0.6852    2.0000                                                                                                           
                 1 H1     1s     (-0.3452)   3 H1     *s     ( 0.1778)  24 H2     1s     ( 0.3452)  26 H2     *s     (-0.1779)
                48 C3     2s     (-0.2481)  50 C3     *s     (-0.2447)  51 C3     *s     (-0.2470)  56 C3     2py    (-0.2009)
                93 H4     1s     ( 0.3452)  95 H4     *s     (-0.1779) 117 C5     2s     ( 0.2482) 119 C5     *s     ( 0.2447)
               120 C5     *s     ( 0.2470) 121 C5     2px    ( 0.1739) 125 C5     2py    ( 0.1004) 163 C6     2s     ( 0.2482)
               165 C6     *s     ( 0.2447) 166 C6     *s     ( 0.2470) 167 C6     2px    (-0.1739) 171 C6     2py    ( 0.1004)
               209 C7     2s     (-0.2482) 211 C7     *s     (-0.2447) 212 C7     *s     (-0.2470) 213 C7     2px    (-0.1739)
               217 C7     2py    ( 0.1004) 255 C8     2s     (-0.2482) 257 C8     *s     (-0.2447) 258 C8     *s     (-0.2470)
               259 C8     2px    ( 0.1739) 263 C8     2py    ( 0.1004) 300 H9     1s     (-0.3452) 302 H9     *s     ( 0.1779)
               324 C10    2s     ( 0.2481) 326 C10    *s     ( 0.2447) 327 C10    *s     ( 0.2470) 332 C10    2py    (-0.2009)
               369 H11    1s     (-0.3452) 371 H11    *s     ( 0.1779) 392 H12    1s     ( 0.3452) 394 H12    *s     (-0.1778)
      
         14   -0.6727    2.0000                                                                                                           
                52 C3     2px    (-0.4260) 121 C5     2px    ( 0.2131) 125 C5     2py    (-0.3686) 167 C6     2px    ( 0.2131)
               171 C6     2py    ( 0.3686) 213 C7     2px    ( 0.2131) 217 C7     2py    ( 0.3686) 259 C8     2px    ( 0.2131)
               263 C8     2py    (-0.3686) 328 C10    2px    (-0.4260)
         15   -0.6359    2.0000                                                                                                           
                24 H2     1s     ( 0.3608)  26 H2     *s     (-0.1296)  52 C3     2px    (-0.1296)  93 H4     1s     (-0.3608)
                95 H4     *s     ( 0.1296) 119 C5     *s     ( 0.1379) 121 C5     2px    ( 0.3095) 125 C5     2py    ( 0.2541)
               165 C6     *s     (-0.1379) 167 C6     2px    ( 0.3095) 171 C6     2py    (-0.2541) 211 C7     *s     ( 0.1379)
               213 C7     2px    ( 0.3095) 217 C7     2py    (-0.2541) 257 C8     *s     (-0.1379) 259 C8     2px    ( 0.3095)
               263 C8     2py    ( 0.2541) 300 H9     1s     ( 0.3608) 302 H9     *s     (-0.1296) 328 C10    2px    (-0.1296)
               369 H11    1s     (-0.3608) 371 H11    *s     ( 0.1296)
         16   -0.6358    2.0000                                                                                                           
                 1 H1     1s     (-0.4166)   3 H1     *s     ( 0.1500)  24 H2     1s     (-0.2083)  50 C3     *s     (-0.1587)
                56 C3     2py    (-0.4562)  93 H4     1s     (-0.2083) 121 C5     2px    (-0.2538) 167 C6     2px    ( 0.2538)
               213 C7     2px    ( 0.2538) 259 C8     2px    (-0.2538) 300 H9     1s     ( 0.2083) 326 C10    *s     ( 0.1587)
               332 C10    2py    (-0.4562) 369 H11    1s     ( 0.2083) 392 H12    1s     ( 0.4166) 394 H12    *s     (-0.1500)
      
         17   -0.5415    2.0000                                                                                                           
                 1 H1     1s     (-0.4149)   2 H1     *s     ( 0.1007)   3 H1     *s     ( 0.1877)  24 H2     1s     ( 0.2075)
                50 C3     *s     (-0.2096)  56 C3     2py    (-0.3508)  93 H4     1s     ( 0.2075) 119 C5     *s     ( 0.1049)
               125 C5     2py    ( 0.3829) 165 C6     *s     ( 0.1049) 171 C6     2py    ( 0.3829) 211 C7     *s     ( 0.1049)
               217 C7     2py    (-0.3829) 257 C8     *s     ( 0.1049) 263 C8     2py    (-0.3829) 300 H9     1s     ( 0.2075)
               326 C10    *s     (-0.2096) 332 C10    2py    ( 0.3508) 369 H11    1s     ( 0.2075) 392 H12    1s     (-0.4149)
               393 H12    *s     ( 0.1007) 394 H12    *s     ( 0.1877)
         18   -0.5415    2.0000                                                                                                           
                24 H2     1s     ( 0.3594)  26 H2     *s     (-0.1626)  52 C3     2px    (-0.3935)  93 H4     1s     (-0.3594)
                95 H4     *s     ( 0.1626) 119 C5     *s     ( 0.1815) 121 C5     2px    ( 0.3615) 165 C6     *s     (-0.1815)
               167 C6     2px    ( 0.3615) 211 C7     *s     (-0.1815) 213 C7     2px    (-0.3615) 257 C8     *s     ( 0.1815)
               259 C8     2px    (-0.3615) 300 H9     1s     (-0.3594) 302 H9     *s     ( 0.1626) 328 C10    2px    ( 0.3935)
               369 H11    1s     ( 0.3594) 371 H11    *s     (-0.1626)
         19    0.0000    1.8388                                                                                                           
                60 C3     2pz    (-0.3188) 129 C5     2pz    (-0.3188) 175 C6     2pz    (-0.3188) 221 C7     2pz    (-0.3188)
               267 C8     2pz    (-0.3188) 336 C10    2pz    (-0.3188)
         20    0.0000    1.5935                                                                                                           
               129 C5     2pz    (-0.4198) 175 C6     2pz    ( 0.4198) 221 C7     2pz    (-0.4198) 267 C8     2pz    ( 0.4198)
      
         21    0.0000    1.5930                                                                                                           
                60 C3     2pz    (-0.4848) 129 C5     2pz    (-0.2423) 175 C6     2pz    (-0.2423) 221 C7     2pz    ( 0.2423)
               267 C8     2pz    ( 0.2423) 336 C10    2pz    ( 0.4848)
         22    0.0000    0.2376                                                                                                           
                60 C3     2pz    (-0.5328)  62 C3     *pz    (-0.1268)  63 C3     *pz    (-0.1295) 129 C5     2pz    ( 0.2665)
               175 C6     2pz    ( 0.2665) 221 C7     2pz    ( 0.2665) 267 C8     2pz    ( 0.2665) 336 C10    2pz    (-0.5328)
               338 C10    *pz    (-0.1268) 339 C10    *pz    (-0.1295)
         23    0.0000    0.2371                                                                                                           
               129 C5     2pz    (-0.4615) 131 C5     *pz    (-0.1098) 132 C5     *pz    (-0.1120) 175 C6     2pz    ( 0.4615)
               177 C6     *pz    ( 0.1098) 178 C6     *pz    ( 0.1120) 221 C7     2pz    ( 0.4615) 223 C7     *pz    ( 0.1098)
               224 C7     *pz    ( 0.1120) 267 C8     2pz    (-0.4615) 269 C8     *pz    (-0.1098) 270 C8     *pz    (-0.1120)
      
         24    0.0000    0.5000                                                                                                           
                 3 H1     *s     ( 0.5477)   4 H1     *s     ( 0.5809)  26 H2     *s     ( 0.5480)  27 H2     *s     ( 0.5805)
                50 C3     *s     (-0.3910)  51 C3     *s     (-0.5911)  58 C3     *py    (-0.2406)  59 C3     *py    (-0.2066)
                95 H4     *s     ( 0.5480)  96 H4     *s     ( 0.5805) 119 C5     *s     (-0.3919) 120 C5     *s     (-0.5905)
               123 C5     *px    (-0.2081) 124 C5     *px    (-0.1787) 127 C5     *py    (-0.1202) 128 C5     *py    (-0.1031)
               165 C6     *s     (-0.3919) 166 C6     *s     (-0.5905) 169 C6     *px    ( 0.2081) 170 C6     *px    ( 0.1787)
               173 C6     *py    (-0.1202) 174 C6     *py    (-0.1031) 211 C7     *s     (-0.3919) 212 C7     *s     (-0.5905)
               215 C7     *px    (-0.2081) 216 C7     *px    (-0.1787) 219 C7     *py    ( 0.1202) 220 C7     *py    ( 0.1031)
               257 C8     *s     (-0.3919) 258 C8     *s     (-0.5905) 261 C8     *px    ( 0.2081) 262 C8     *px    ( 0.1787)
               265 C8     *py    ( 0.1202) 266 C8     *py    ( 0.1031) 302 H9     *s     ( 0.5480) 303 H9     *s     ( 0.5805)
               326 C10    *s     (-0.3910) 327 C10    *s     (-0.5911) 334 C10    *py    ( 0.2406) 335 C10    *py    ( 0.2066)
               371 H11    *s     ( 0.5480) 372 H11    *s     ( 0.5805) 394 H12    *s     ( 0.5477) 395 H12    *s     ( 0.5809)
      
         25    0.0274    0.0000                                                                                                           
                 7 H1     *px    (-0.1426)  26 H2     *s     ( 0.3000)  27 H2     *s     (-2.6929)  30 H2     *px    (-0.1293)
                54 C3     *px    ( 0.6407)  55 C3     *px    ( 2.9928)  95 H4     *s     (-0.3000)  96 H4     *s     ( 2.6929)
                99 H4     *px    (-0.1293) 119 C5     *s     (-0.3189) 120 C5     *s     (-4.8084) 123 C5     *px    ( 0.2715)
               124 C5     *px    ( 1.9276) 127 C5     *py    (-0.2132) 128 C5     *py    (-0.6156) 141 C5     *d0    ( 0.1545)
               165 C6     *s     ( 0.3189) 166 C6     *s     ( 4.8084) 169 C6     *px    ( 0.2715) 170 C6     *px    ( 1.9276)
               173 C6     *py    ( 0.2132) 174 C6     *py    ( 0.6156) 187 C6     *d0    (-0.1545) 211 C7     *s     (-0.3189)
               212 C7     *s     (-4.8084) 215 C7     *px    ( 0.2715) 216 C7     *px    ( 1.9276) 219 C7     *py    ( 0.2132)
               220 C7     *py    ( 0.6156) 233 C7     *d0    ( 0.1545) 257 C8     *s     ( 0.3189) 258 C8     *s     ( 4.8084)
               261 C8     *px    ( 0.2715) 262 C8     *px    ( 1.9276) 265 C8     *py    (-0.2132) 266 C8     *py    (-0.6156)
               279 C8     *d0    (-0.1545) 302 H9     *s     ( 0.3000) 303 H9     *s     (-2.6929) 306 H9     *px    (-0.1293)
               330 C10    *px    ( 0.6407) 331 C10    *px    ( 2.9928) 371 H11    *s     (-0.3000) 372 H11    *s     ( 2.6929)
               375 H11    *px    (-0.1293) 398 H12    *px    (-0.1426)
         26    0.0275    0.0000                                                                                                           
                 3 H1     *s     ( 0.3520)   4 H1     *s     (-3.1101)  10 H1     *py    (-0.1257)  26 H2     *s     ( 0.1672)
                27 H2     *s     (-1.5553)  33 H2     *py    (-0.1377)  50 C3     *s     (-0.3670)  51 C3     *s     (-5.5505)
                58 C3     *py    ( 0.1486)  59 C3     *py    ( 1.5725)  72 C3     *d0    ( 0.1787)  95 H4     *s     ( 0.1672)
                96 H4     *s     (-1.5553) 102 H4     *py    (-0.1377) 119 C5     *s     (-0.1853) 120 C5     *s     (-2.7797)
               123 C5     *px    (-0.2135) 124 C5     *px    (-0.6149) 127 C5     *py    ( 0.5180) 128 C5     *py    ( 2.6379)
               165 C6     *s     (-0.1853) 166 C6     *s     (-2.7797) 169 C6     *px    ( 0.2135) 170 C6     *px    ( 0.6149)
               173 C6     *py    ( 0.5180) 174 C6     *py    ( 2.6379) 211 C7     *s     ( 0.1853) 212 C7     *s     ( 2.7797)
               215 C7     *px    ( 0.2135) 216 C7     *px    ( 0.6149) 219 C7     *py    ( 0.5180) 220 C7     *py    ( 2.6379)
               257 C8     *s     ( 0.1853) 258 C8     *s     ( 2.7797) 261 C8     *px    (-0.2135) 262 C8     *px    (-0.6149)
               265 C8     *py    ( 0.5180) 266 C8     *py    ( 2.6379) 302 H9     *s     (-0.1672) 303 H9     *s     ( 1.5553)
               309 H9     *py    (-0.1377) 326 C10    *s     ( 0.3670) 327 C10    *s     ( 5.5505) 334 C10    *py    ( 0.1486)
               335 C10    *py    ( 1.5725) 348 C10    *d0    (-0.1787) 371 H11    *s     (-0.1672) 372 H11    *s     ( 1.5553)
               378 H11    *py    (-0.1377) 394 H12    *s     (-0.3520) 395 H12    *s     ( 3.1101) 401 H12    *py    (-0.1257)
      
         27    0.0448    0.0000                                                                                                           
                 2 H1     *s     (-0.2501)   3 H1     *s     (-3.4233)   4 H1     *s     ( 7.6517)   9 H1     *py    ( 0.1047)
                10 H1     *py    ( 0.8684)  25 H2     *s     ( 0.1252)  26 H2     *s     ( 1.7120)  27 H2     *s     (-3.8259)
                30 H2     *px    (-0.4317)  33 H2     *py    (-0.1209)  50 C3     *s     ( 0.8579)  51 C3     *s     (15.6595)
                58 C3     *py    ( 0.2581)  59 C3     *py    (-7.4790)  72 C3     *d0    (-0.1865)  77 C3     *d2+   (-0.1188)
                78 C3     *d2+   (-1.0961)  94 H4     *s     ( 0.1252)  95 H4     *s     ( 1.7120)  96 H4     *s     (-3.8259)
                99 H4     *px    ( 0.4317) 102 H4     *py    (-0.1209) 119 C5     *s     (-0.4295) 120 C5     *s     (-7.8297)
               123 C5     *px    (-0.4078) 124 C5     *px    ( 3.4180) 127 C5     *py    ( 0.4479) 128 C5     *py    ( 1.5592)
               135 C5     *d2-   (-0.4783) 147 C5     *d2+   (-0.2678) 165 C6     *s     (-0.4295) 166 C6     *s     (-7.8297)
               169 C6     *px    ( 0.4078) 170 C6     *px    (-3.4180) 173 C6     *py    ( 0.4479) 174 C6     *py    ( 1.5592)
               181 C6     *d2-   ( 0.4783) 193 C6     *d2+   (-0.2678) 211 C7     *s     (-0.4295) 212 C7     *s     (-7.8297)
               215 C7     *px    (-0.4078) 216 C7     *px    ( 3.4180) 219 C7     *py    (-0.4479) 220 C7     *py    (-1.5592)
               227 C7     *d2-   ( 0.4783) 239 C7     *d2+   (-0.2678) 257 C8     *s     (-0.4295) 258 C8     *s     (-7.8297)
               261 C8     *px    ( 0.4078) 262 C8     *px    (-3.4180) 265 C8     *py    (-0.4479) 266 C8     *py    (-1.5592)
               273 C8     *d2-   (-0.4783) 285 C8     *d2+   (-0.2678) 301 H9     *s     ( 0.1252) 302 H9     *s     ( 1.7120)
               303 H9     *s     (-3.8259) 306 H9     *px    (-0.4317) 309 H9     *py    ( 0.1209) 326 C10    *s     ( 0.8579)
               327 C10    *s     (15.6595) 334 C10    *py    (-0.2581) 335 C10    *py    ( 7.4790) 348 C10    *d0    (-0.1865)
               353 C10    *d2+   (-0.1188) 354 C10    *d2+   (-1.0961) 370 H11    *s     ( 0.1252) 371 H11    *s     ( 1.7120)
               372 H11    *s     (-3.8259) 375 H11    *px    ( 0.4317) 378 H11    *py    ( 0.1209) 393 H12    *s     (-0.2501)
               394 H12    *s     (-3.4233) 395 H12    *s     ( 7.6517) 400 H12    *py    (-0.1047) 401 H12    *py    (-0.8684)
      
         28    0.0448    0.0000                                                                                                           
                 7 H1     *px    ( 0.1284)  25 H2     *s     (-0.2166)  26 H2     *s     (-2.9669)  27 H2     *s     ( 6.6284)
                30 H2     *px    ( 0.6200)  33 H2     *py    ( 0.4312)  54 C3     *px    ( 0.6889)  55 C3     *px    (-0.4115)
                94 H4     *s     ( 0.2166)  95 H4     *s     ( 2.9669)  96 H4     *s     (-6.6284)  99 H4     *px    ( 0.6200)
               102 H4     *py    (-0.4312) 119 C5     *s     ( 0.7426) 120 C5     *s     (13.5568) 124 C5     *px    (-5.5065)
               127 C5     *py    ( 0.4034) 128 C5     *py    (-3.4176) 135 C5     *d2-   ( 0.8222) 141 C5     *d0    (-0.1613)
               147 C5     *d2+   ( 0.4772) 165 C6     *s     (-0.7426) 166 C6     *s     (*******) 170 C6     *px    (-5.5065)
               173 C6     *py    (-0.4034) 174 C6     *py    ( 3.4176) 181 C6     *d2-   ( 0.8222) 187 C6     *d0    ( 0.1613)
               193 C6     *d2+   (-0.4772) 211 C7     *s     (-0.7426) 212 C7     *s     (*******) 216 C7     *px    ( 5.5065)
               219 C7     *py    ( 0.4034) 220 C7     *py    (-3.4176) 227 C7     *d2-   ( 0.8222) 233 C7     *d0    ( 0.1613)
               239 C7     *d2+   (-0.4772) 257 C8     *s     ( 0.7426) 258 C8     *s     (13.5568) 262 C8     *px    ( 5.5065)
               265 C8     *py    (-0.4034) 266 C8     *py    ( 3.4176) 273 C8     *d2-   ( 0.8222) 279 C8     *d0    (-0.1613)
               285 C8     *d2+   ( 0.4772) 301 H9     *s     ( 0.2166) 302 H9     *s     ( 2.9669) 303 H9     *s     (-6.6284)
               306 H9     *px    (-0.6200) 309 H9     *py    ( 0.4312) 330 C10    *px    (-0.6889) 331 C10    *px    ( 0.4115)
               370 H11    *s     (-0.2166) 371 H11    *s     (-2.9669) 372 H11    *s     ( 6.6284) 375 H11    *px    (-0.6200)
               378 H11    *py    (-0.4312) 398 H12    *px    (-0.1284)
         29    0.0632    0.0000                                                                                                           
                 2 H1     *s     ( 0.4206)   3 H1     *s     ( 8.0024)   4 H1     *s     (*******)  10 H1     *py    (-1.5653)
                25 H2     *s     (-0.4207)  26 H2     *s     (-8.0041)  27 H2     *s     (12.4783)  30 H2     *px    ( 1.3562)
                33 H2     *py    ( 0.7824)  50 C3     *s     (-1.5006)  51 C3     *s     (*******)  58 C3     *py    (-2.1324)
                59 C3     *py    (14.5496)  72 C3     *d0    ( 0.5388)  78 C3     *d2+   ( 1.7958)  94 H4     *s     (-0.4207)
                95 H4     *s     (-8.0041)  96 H4     *s     (12.4783)  99 H4     *px    (-1.3562) 102 H4     *py    ( 0.7824)
               119 C5     *s     ( 1.5027) 120 C5     *s     (46.8200) 123 C5     *px    ( 1.8477) 124 C5     *px    (*******)
               127 C5     *py    ( 1.0657) 128 C5     *py    (-7.2743) 135 C5     *d2-   ( 1.5557) 141 C5     *d0    (-0.5386)
               147 C5     *d2+   ( 0.8983) 165 C6     *s     ( 1.5027) 166 C6     *s     (46.8200) 169 C6     *px    (-1.8477)
               170 C6     *px    (12.6033) 173 C6     *py    ( 1.0657) 174 C6     *py    (-7.2743) 181 C6     *d2-   (-1.5557)
               187 C6     *d0    (-0.5386) 193 C6     *d2+   ( 0.8983) 211 C7     *s     (-1.5027) 212 C7     *s     (*******)
               215 C7     *px    (-1.8477) 216 C7     *px    (12.6033) 219 C7     *py    ( 1.0657) 220 C7     *py    (-7.2743)
               227 C7     *d2-   ( 1.5557) 233 C7     *d0    ( 0.5386) 239 C7     *d2+   (-0.8983) 257 C8     *s     (-1.5027)
               258 C8     *s     (*******) 261 C8     *px    ( 1.8477) 262 C8     *px    (*******) 265 C8     *py    ( 1.0657)
               266 C8     *py    (-7.2743) 273 C8     *d2-   (-1.5557) 279 C8     *d0    ( 0.5386) 285 C8     *d2+   (-0.8983)
               301 H9     *s     ( 0.4207) 302 H9     *s     ( 8.0041) 303 H9     *s     (*******) 306 H9     *px    (-1.3562)
               309 H9     *py    ( 0.7824) 326 C10    *s     ( 1.5006) 327 C10    *s     (46.8178) 334 C10    *py    (-2.1324)
               335 C10    *py    (14.5496) 348 C10    *d0    (-0.5388) 354 C10    *d2+   (-1.7958) 370 H11    *s     ( 0.4207)
               371 H11    *s     ( 8.0041) 372 H11    *s     (*******) 375 H11    *px    ( 1.3562) 378 H11    *py    ( 0.7824)
               393 H12    *s     (-0.4206) 394 H12    *s     (-8.0024) 395 H12    *s     (12.4748) 401 H12    *py    (-1.5653)
      
         30    0.0807    0.0000                                                                                                           
                13 H1     *pz    (-0.1139)  36 H2     *pz    (-0.1141)  63 C3     *pz    ( 0.2626) 105 H4     *pz    (-0.1141)
               132 C5     *pz    ( 0.2633) 178 C6     *pz    ( 0.2633) 224 C7     *pz    ( 0.2633) 270 C8     *pz    ( 0.2633)
               312 H9     *pz    (-0.1141) 339 C10    *pz    ( 0.2626) 381 H11    *pz    (-0.1141) 404 H12    *pz    (-0.1139)
      
         31    0.0999    0.0000                                                                                                           
                36 H2     *pz    ( 0.2150)  75 C3     *d1+   ( 0.8323) 105 H4     *pz    (-0.2150) 131 C5     *pz    (-0.7342)
               132 C5     *pz    (-1.0028) 138 C5     *d1-   (-0.4073) 144 C5     *d1+   ( 0.1269) 177 C6     *pz    ( 0.7342)
               178 C6     *pz    ( 1.0028) 184 C6     *d1-   ( 0.4073) 190 C6     *d1+   ( 0.1269) 223 C7     *pz    (-0.7342)
               224 C7     *pz    (-1.0028) 230 C7     *d1-   ( 0.4073) 236 C7     *d1+   ( 0.1269) 269 C8     *pz    ( 0.7342)
               270 C8     *pz    ( 1.0028) 276 C8     *d1-   (-0.4073) 282 C8     *d1+   ( 0.1269) 312 H9     *pz    ( 0.2150)
               351 C10    *d1+   ( 0.8323) 381 H11    *pz    (-0.2150)
         32    0.0999    0.0000                                                                                                           
                13 H1     *pz    ( 0.2481)  36 H2     *pz    ( 0.1246)  62 C3     *pz    (-0.8485)  63 C3     *pz    (-1.1571)
                69 C3     *d1-   (-0.1078) 105 H4     *pz    ( 0.1246) 131 C5     *pz    (-0.4239) 132 C5     *pz    (-0.5801)
               138 C5     *d1-   ( 0.5971) 144 C5     *d1+   (-0.4079) 177 C6     *pz    (-0.4239) 178 C6     *pz    (-0.5801)
               184 C6     *d1-   ( 0.5971) 190 C6     *d1+   ( 0.4079) 223 C7     *pz    ( 0.4239) 224 C7     *pz    ( 0.5801)
               230 C7     *d1-   ( 0.5971) 236 C7     *d1+   ( 0.4079) 269 C8     *pz    ( 0.4239) 270 C8     *pz    ( 0.5801)
               276 C8     *d1-   ( 0.5971) 282 C8     *d1+   (-0.4079) 312 H9     *pz    (-0.1246) 338 C10    *pz    ( 0.8485)
               339 C10    *pz    ( 1.1571) 345 C10    *d1-   (-0.1078) 381 H11    *pz    (-0.1246) 404 H12    *pz    (-0.2481)
      
         33    0.1003    0.0000                                                                                                           
                 3 H1     *s     (-0.1144)   4 H1     *s     ( 0.2184)  26 H2     *s     (-0.1262)  27 H2     *s     ( 0.2251)
                50 C3     *s     (-0.6566)  58 C3     *py    (-0.2051)  59 C3     *py    (-0.7774)  72 C3     *d0    (-0.2208)
                78 C3     *d2+   ( 0.3331)  95 H4     *s     (-0.1262)  96 H4     *s     ( 0.2251) 119 C5     *s     (-0.6460)
               123 C5     *px    (-0.1774) 124 C5     *px    (-0.6824) 127 C5     *py    (-0.1034) 128 C5     *py    (-0.3938)
               135 C5     *d2-   (-0.2858) 141 C5     *d0    (-0.2210) 147 C5     *d2+   (-0.1630) 165 C6     *s     (-0.6460)
               169 C6     *px    ( 0.1774) 170 C6     *px    ( 0.6824) 173 C6     *py    (-0.1034) 174 C6     *py    (-0.3938)
               181 C6     *d2-   ( 0.2858) 187 C6     *d0    (-0.2210) 193 C6     *d2+   (-0.1630) 211 C7     *s     (-0.6460)
               215 C7     *px    (-0.1774) 216 C7     *px    (-0.6824) 219 C7     *py    ( 0.1034) 220 C7     *py    ( 0.3938)
               227 C7     *d2-   ( 0.2858) 233 C7     *d0    (-0.2210) 239 C7     *d2+   (-0.1630) 257 C8     *s     (-0.6460)
               261 C8     *px    ( 0.1774) 262 C8     *px    ( 0.6824) 265 C8     *py    ( 0.1034) 266 C8     *py    ( 0.3938)
               273 C8     *d2-   (-0.2858) 279 C8     *d0    (-0.2210) 285 C8     *d2+   (-0.1630) 302 H9     *s     (-0.1262)
               303 H9     *s     ( 0.2251) 326 C10    *s     (-0.6566) 334 C10    *py    ( 0.2051) 335 C10    *py    ( 0.7774)
               348 C10    *d0    (-0.2208) 354 C10    *d2+   ( 0.3331) 371 H11    *s     (-0.1262) 372 H11    *s     ( 0.2251)
               394 H12    *s     (-0.1144) 395 H12    *s     ( 0.2184)
         34    0.1093    0.0000                                                                                                           
                 7 H1     *px    (-0.8732)  25 H2     *s     ( 0.2738)  26 H2     *s     ( 3.9664)  27 H2     *s     (-4.5852)
                30 H2     *px    (-0.7061)  54 C3     *px    (-0.1984)  55 C3     *px    (14.1254)  66 C3     *d2-   ( 1.5728)
                94 H4     *s     (-0.2738)  95 H4     *s     (-3.9665)  96 H4     *s     ( 4.5852)  99 H4     *px    (-0.7061)
               119 C5     *s     ( 1.2390) 120 C5     *s     (*******) 123 C5     *px    (-1.3021) 124 C5     *px    ( 4.6550)
               127 C5     *py    (-0.6365) 128 C5     *py    (-5.4673) 135 C5     *d2-   (-0.5825) 141 C5     *d0    ( 0.8738)
               147 C5     *d2+   ( 0.5712) 165 C6     *s     (-1.2390) 166 C6     *s     (23.5182) 169 C6     *px    (-1.3022)
               170 C6     *px    ( 4.6549) 173 C6     *py    ( 0.6365) 174 C6     *py    ( 5.4672) 181 C6     *d2-   (-0.5825)
               187 C6     *d0    (-0.8738) 193 C6     *d2+   (-0.5712) 211 C7     *s     ( 1.2390) 212 C7     *s     (*******)
               215 C7     *px    (-1.3022) 216 C7     *px    ( 4.6549) 219 C7     *py    ( 0.6365) 220 C7     *py    ( 5.4672)
               227 C7     *d2-   ( 0.5825) 233 C7     *d0    ( 0.8738) 239 C7     *d2+   ( 0.5712) 257 C8     *s     (-1.2390)
               258 C8     *s     (23.5181) 261 C8     *px    (-1.3021) 262 C8     *px    ( 4.6550) 265 C8     *py    (-0.6365)
               266 C8     *py    (-5.4673) 273 C8     *d2-   ( 0.5825) 279 C8     *d0    (-0.8738) 285 C8     *d2+   (-0.5712)
               301 H9     *s     ( 0.2738) 302 H9     *s     ( 3.9665) 303 H9     *s     (-4.5852) 306 H9     *px    (-0.7061)
               330 C10    *px    (-0.1984) 331 C10    *px    (14.1254) 342 C10    *d2-   (-1.5728) 370 H11    *s     (-0.2738)
               371 H11    *s     (-3.9664) 372 H11    *s     ( 4.5852) 375 H11    *px    (-0.7061) 398 H12    *px    (-0.8732)
      
         35    0.1093    0.0000                                                                                                           
                 2 H1     *s     ( 0.3157)   3 H1     *s     ( 4.5999)   4 H1     *s     (-5.2953)  10 H1     *py    (-0.6532)
                25 H2     *s     ( 0.1579)  26 H2     *s     ( 2.2687)  27 H2     *s     (-2.6478)  33 H2     *py    (-0.8160)
                50 C3     *s     ( 1.4379)  51 C3     *s     (*******)  58 C3     *py    (-1.6690)  59 C3     *py    ( 1.4978)
                72 C3     *d0    ( 1.0107)  77 C3     *d2+   ( 0.1076)  78 C3     *d2+   ( 0.2610)  94 H4     *s     ( 0.1579)
                95 H4     *s     ( 2.2687)  96 H4     *s     (-2.6478) 102 H4     *py    (-0.8160) 119 C5     *s     ( 0.7163)
               120 C5     *s     (*******) 123 C5     *px    (-0.6391) 124 C5     *px    (-5.4691) 127 C5     *py    (-0.5655)
               128 C5     *py    (10.9697) 135 C5     *d2-   ( 0.5822) 141 C5     *d0    ( 0.5042) 147 C5     *d2+   (-1.2394)
               165 C6     *s     ( 0.7163) 166 C6     *s     (*******) 169 C6     *px    ( 0.6391) 170 C6     *px    ( 5.4692)
               173 C6     *py    (-0.5655) 174 C6     *py    (10.9697) 181 C6     *d2-   (-0.5822) 187 C6     *d0    ( 0.5042)
               193 C6     *d2+   (-1.2394) 211 C7     *s     (-0.7163) 212 C7     *s     (13.5917) 215 C7     *px    ( 0.6391)
               216 C7     *px    ( 5.4692) 219 C7     *py    (-0.5655) 220 C7     *py    (10.9697) 227 C7     *d2-   ( 0.5822)
               233 C7     *d0    (-0.5042) 239 C7     *d2+   ( 1.2394) 257 C8     *s     (-0.7163) 258 C8     *s     (13.5918)
               261 C8     *px    (-0.6391) 262 C8     *px    (-5.4691) 265 C8     *py    (-0.5655) 266 C8     *py    (10.9697)
               273 C8     *d2-   (-0.5822) 279 C8     *d0    (-0.5042) 285 C8     *d2+   ( 1.2394) 301 H9     *s     (-0.1579)
               302 H9     *s     (-2.2687) 303 H9     *s     ( 2.6478) 309 H9     *py    (-0.8160) 326 C10    *s     (-1.4379)
               327 C10    *s     (27.1575) 334 C10    *py    (-1.6690) 335 C10    *py    ( 1.4978) 348 C10    *d0    (-1.0107)
               353 C10    *d2+   (-0.1076) 354 C10    *d2+   (-0.2610) 370 H11    *s     (-0.1579) 371 H11    *s     (-2.2687)
               372 H11    *s     ( 2.6478) 378 H11    *py    (-0.8160) 393 H12    *s     (-0.3157) 394 H12    *s     (-4.5999)
               395 H12    *s     ( 5.2953) 401 H12    *py    (-0.6532)
         36    0.1154    0.0000                                                                                                           
                 2 H1     *s     ( 0.6210)   3 H1     *s     ( 4.1355)   4 H1     *s     ( 1.5438)   9 H1     *py    (-0.2326)
                10 H1     *py    (-0.8059)  25 H2     *s     ( 0.6205)  26 H2     *s     ( 4.1322)  27 H2     *s     ( 1.5603)
                29 H2     *px    (-0.2014)  30 H2     *px    (-0.6966)  32 H2     *py    (-0.1162)  33 H2     *py    (-0.4037)
                48 C3     2s     ( 0.1210)  50 C3     *s     (-2.2519)  51 C3     *s     (-3.4711)  57 C3     *py    (-0.2000)
                58 C3     *py    (-1.6955)  59 C3     *py    (-0.8955)  72 C3     *d0    ( 0.3155)  77 C3     *d2+   ( 0.1756)
                78 C3     *d2+   ( 0.4269)  94 H4     *s     ( 0.6205)  95 H4     *s     ( 4.1322)  96 H4     *s     ( 1.5603)
                98 H4     *px    ( 0.2014)  99 H4     *px    ( 0.6966) 101 H4     *py    (-0.1162) 102 H4     *py    (-0.4037)
               117 C5     2s     ( 0.1212) 119 C5     *s     (-2.2590) 120 C5     *s     (-3.3958) 122 C5     *px    (-0.1731)
               123 C5     *px    (-1.4633) 124 C5     *px    (-0.7953) 127 C5     *py    (-0.8449) 128 C5     *py    (-0.4533)
               134 C5     *d2-   (-0.1519) 135 C5     *d2-   (-0.3704) 141 C5     *d0    ( 0.3135) 147 C5     *d2+   (-0.2178)
               163 C6     2s     ( 0.1212) 165 C6     *s     (-2.2590) 166 C6     *s     (-3.3958) 168 C6     *px    ( 0.1731)
               169 C6     *px    ( 1.4633) 170 C6     *px    ( 0.7953) 173 C6     *py    (-0.8449) 174 C6     *py    (-0.4533)
               180 C6     *d2-   ( 0.1519) 181 C6     *d2-   ( 0.3704) 187 C6     *d0    ( 0.3135) 193 C6     *d2+   (-0.2178)
               209 C7     2s     ( 0.1212) 211 C7     *s     (-2.2590) 212 C7     *s     (-3.3958) 214 C7     *px    (-0.1731)
               215 C7     *px    (-1.4633) 216 C7     *px    (-0.7953) 219 C7     *py    ( 0.8449) 220 C7     *py    ( 0.4533)
               226 C7     *d2-   ( 0.1519) 227 C7     *d2-   ( 0.3704) 233 C7     *d0    ( 0.3135) 239 C7     *d2+   (-0.2178)
               255 C8     2s     ( 0.1212) 257 C8     *s     (-2.2590) 258 C8     *s     (-3.3958) 260 C8     *px    ( 0.1731)
               261 C8     *px    ( 1.4633) 262 C8     *px    ( 0.7953) 265 C8     *py    ( 0.8449) 266 C8     *py    ( 0.4533)
               272 C8     *d2-   (-0.1519) 273 C8     *d2-   (-0.3704) 279 C8     *d0    ( 0.3135) 285 C8     *d2+   (-0.2178)
               301 H9     *s     ( 0.6205) 302 H9     *s     ( 4.1322) 303 H9     *s     ( 1.5603) 305 H9     *px    (-0.2014)
               306 H9     *px    (-0.6966) 308 H9     *py    ( 0.1162) 309 H9     *py    ( 0.4037) 324 C10    2s     ( 0.1210)
               326 C10    *s     (-2.2519) 327 C10    *s     (-3.4711) 333 C10    *py    ( 0.2000) 334 C10    *py    ( 1.6955)
               335 C10    *py    ( 0.8955) 348 C10    *d0    ( 0.3155) 353 C10    *d2+   ( 0.1756) 354 C10    *d2+   ( 0.4269)
               370 H11    *s     ( 0.6205) 371 H11    *s     ( 4.1322) 372 H11    *s     ( 1.5603) 374 H11    *px    ( 0.2014)
               375 H11    *px    ( 0.6966) 377 H11    *py    ( 0.1162) 378 H11    *py    ( 0.4037) 393 H12    *s     ( 0.6210)
               394 H12    *s     ( 4.1355) 395 H12    *s     ( 1.5438) 400 H12    *py    ( 0.2326) 401 H12    *py    ( 0.8059)
      
         37    0.1163    0.0000                                                                                                           
                 7 H1     *px    ( 0.2337)  30 H2     *px    (-0.1171)  33 H2     *py    ( 0.2021)  54 C3     *px    (-0.3923)
                55 C3     *px    (-1.8161)  66 C3     *d2-   ( 0.1656)  99 H4     *px    (-0.1171) 102 H4     *py    (-0.2021)
               123 C5     *px    ( 0.1955) 124 C5     *px    ( 0.9150) 127 C5     *py    (-0.3400) 128 C5     *py    (-1.5843)
               147 C5     *d2+   (-0.1443) 169 C6     *px    ( 0.1955) 170 C6     *px    ( 0.9150) 173 C6     *py    ( 0.3400)
               174 C6     *py    ( 1.5843) 193 C6     *d2+   ( 0.1443) 215 C7     *px    ( 0.1955) 216 C7     *px    ( 0.9150)
               219 C7     *py    ( 0.3400) 220 C7     *py    ( 1.5843) 239 C7     *d2+   (-0.1443) 261 C8     *px    ( 0.1955)
               262 C8     *px    ( 0.9150) 265 C8     *py    (-0.3400) 266 C8     *py    (-1.5843) 285 C8     *d2+   ( 0.1443)
               306 H9     *px    (-0.1171) 309 H9     *py    (-0.2021) 330 C10    *px    (-0.3923) 331 C10    *px    (-1.8161)
               342 C10    *d2-   (-0.1656) 375 H11    *px    (-0.1171) 378 H11    *py    ( 0.2021) 398 H12    *px    ( 0.2337)
      
         38    0.1211    0.0000                                                                                                           
                 2 H1     *s     (-0.5665)   3 H1     *s     (-4.0526)   4 H1     *s     (10.7099)   9 H1     *py    ( 0.1302)
                10 H1     *py    ( 0.9447)  25 H2     *s     ( 0.2847)  26 H2     *s     ( 2.0353)  27 H2     *s     (-5.3541)
                30 H2     *px    (-0.7995)  33 H2     *py    ( 0.4363)  50 C3     *s     ( 0.5568)  51 C3     *s     (44.2289)
                58 C3     *py    ( 2.1184)  59 C3     *py    (*******)  72 C3     *d0    (-0.9689)  77 C3     *d2+   (-0.1187)
                78 C3     *d2+   ( 0.3703)  80 C3     *f3-   (-0.1653)  94 H4     *s     ( 0.2845)  95 H4     *s     ( 2.0340)
                96 H4     *s     (-5.3507)  99 H4     *px    ( 0.7993) 102 H4     *py    ( 0.4366) 119 C5     *s     (-0.2850)
               120 C5     *s     (*******) 123 C5     *px    (-1.0015) 124 C5     *px    ( 7.6145) 126 C5     *py    (-0.1228)
               127 C5     *py    (-0.3921) 128 C5     *py    (-0.2834) 135 C5     *d2-   (-0.5638) 141 C5     *d0    ( 0.4848)
               147 C5     *d2+   ( 1.3439) 165 C6     *s     (-0.2848) 166 C6     *s     (*******) 169 C6     *px    ( 1.0010)
               170 C6     *px    (-7.6113) 172 C6     *py    (-0.1228) 173 C6     *py    (-0.3917) 174 C6     *py    (-0.2863)
               181 C6     *d2-   ( 0.5640) 187 C6     *d0    ( 0.4845) 193 C6     *d2+   ( 1.3441) 211 C7     *s     (-0.2848)
               212 C7     *s     (*******) 215 C7     *px    (-1.0010) 216 C7     *px    ( 7.6113) 218 C7     *py    ( 0.1228)
               219 C7     *py    ( 0.3917) 220 C7     *py    ( 0.2863) 227 C7     *d2-   ( 0.5640) 233 C7     *d0    ( 0.4845)
               239 C7     *d2+   ( 1.3441) 257 C8     *s     (-0.2850) 258 C8     *s     (*******) 261 C8     *px    ( 1.0015)
               262 C8     *px    (-7.6145) 264 C8     *py    ( 0.1228) 265 C8     *py    ( 0.3921) 266 C8     *py    ( 0.2834)
               273 C8     *d2-   (-0.5638) 279 C8     *d0    ( 0.4848) 285 C8     *d2+   ( 1.3439) 301 H9     *s     ( 0.2845)
               302 H9     *s     ( 2.0340) 303 H9     *s     (-5.3507) 306 H9     *px    (-0.7993) 309 H9     *py    (-0.4366)
               326 C10    *s     ( 0.5568) 327 C10    *s     (44.2289) 334 C10    *py    (-2.1184) 335 C10    *py    (12.9045)
               348 C10    *d0    (-0.9689) 353 C10    *d2+   (-0.1187) 354 C10    *d2+   ( 0.3703) 356 C10    *f3-   ( 0.1653)
               370 H11    *s     ( 0.2847) 371 H11    *s     ( 2.0353) 372 H11    *s     (-5.3541) 375 H11    *px    ( 0.7995)
               378 H11    *py    (-0.4363) 393 H12    *s     (-0.5665) 394 H12    *s     (-4.0526) 395 H12    *s     (10.7099)
               400 H12    *py    (-0.1302) 401 H12    *py    (-0.9447)
         39    0.1211    0.0000                                                                                                           
                 7 H1     *px    ( 0.8979)  25 H2     *s     (-0.4913)  26 H2     *s     (-3.5146)  27 H2     *s     ( 9.2748)
                30 H2     *px    ( 0.4846)  33 H2     *py    ( 0.7981)  53 C3     *px    (-0.1427)  54 C3     *px    ( 0.1887)
[...]
      Correlation energy scaling factor                                       1.000000

      Integrated alpha exchange energy                                      -17.228788
      Integrated beta  exchange energy                                      -15.837616
      Integrated  correlation   energy                                       -1.353851

      Nuclear Repulsion energy                                            204.04227156
      Core energy                                                        -193.41428387
      CASSCF contribution energy                                         -197.39147944
      On-top energy                                                       -34.42025422

      Total MC-PDFT energy for state    6                                -231.81173365

      ********************************************************************************

 
The total execution time is limited to 42960 seconds.
--- Stop Module: mcpdft at Mon Jul 18 17:08:04 2022 /rc=_RC_ALL_IS_WELL_ ---
*** files: xmldump
    saved to directory /work/donglab/kaufold.b/Label-Tutorial/ul-C1
--- Module mcpdft spent 19 minutes 10 seconds ---

*** symbolic link created: INPORB -> ul-C1.RasOrb
--- Start Module: grid_it at Mon Jul 18 17:08:04 2022 ---

-- Input validation for grid_it
lxml python module not found, no validation possible
--
 
()()()()()()()()()()()()()()()()()()()()()()()()()()()()()()()()()()()()()()()()()()()()()()()()()()

                                              &GRID_IT

                       only a single process is used, running in SERIAL mode
                       available to each process: 46 GB of memory, 16 threads
                                            pid: 168969
()()()()()()()()()()()()()()()()()()()()()()()()()()()()()()()()()()()()()()()()()()()()()()()()()()
 
 INPORB file: ul-C1.RasOrb
 
      Cartesian coordinates:
      -----------------------------------------
      No.  Label     X         Y         Z     
      -----------------------------------------
       1   H1         0.00000   4.67266   0.00000
       2   H2         4.04723   2.33566   0.00000
       3   C3         0.00000   2.62829   0.00000
       4   H4        -4.04723   2.33566   0.00000
       5   C5         2.27648   1.31401   0.00000
       6   C6        -2.27648   1.31401   0.00000
       7   C7         2.27648  -1.31401   0.00000
       8   C8        -2.27648  -1.31401   0.00000
       9   H9         4.04723  -2.33566   0.00000
      10   C10        0.00000  -2.62829   0.00000
      11   H11       -4.04723  -2.33566   0.00000
      12   H12        0.00000  -4.67266   0.00000
      -----------------------------------------
      Grid Origin      =    -8.000000   -8.000000   -4.000000
      Grid Axis Length =    16.000000   16.000000    8.000000
      -----------------------------------------
 
 
   Input vectors read from INPORB
   Orbital file label: * RASSCF average (pseudo-natural) orbitals
  Number of grid points in file:                   18513
 
  Total number of MOs               :                   414
  Number MOs for grid               :                   415
  Batches processed in increments of:                 18432
 
GridName=  1  414     19.6120 (0.00) s
GridName=  1  413     19.3360 (0.00) s
GridName=  1  412     19.3320 (0.00) s
GridName=  1  411     17.1400 (0.00) s
GridName=  1  410     16.0680 (0.00) s
GridName=  1  409     16.0640 (0.00) s
GridName=  1  408      7.4082 (0.00) s
GridName=  1  407      7.1866 (0.00) s
GridName=  1  406      6.9924 (0.00) s
GridName=  1  405      6.8215 (0.00) s
GridName=  1  404      6.8209 (0.00) s
GridName=  1  403      6.6109 (0.00) s
GridName=  1  402      6.6108 (0.00) s
GridName=  1  401      6.3567 (0.00) s
GridName=  1  400      6.3234 (0.00) s
GridName=  1  399      6.3231 (0.00) s
GridName=  1  397      6.2316 (0.00) s
GridName=  1  398      6.2316 (0.00) s
GridName=  1  396      6.1212 (0.00) s
GridName=  1  395      6.1209 (0.00) s
GridName=  1  394      5.9434 (0.00) s
GridName=  1  393      5.8859 (0.00) s
GridName=  1  392      5.8386 (0.00) s
GridName=  1  391      5.8228 (0.00) s
GridName=  1  390      5.7547 (0.00) s
GridName=  1  389      5.7545 (0.00) s
GridName=  1  388      5.7034 (0.00) s
GridName=  1  387      5.7031 (0.00) s
GridName=  1  386      5.4990 (0.00) s
GridName=  1  385      5.4616 (0.00) s
GridName=  1  384      5.3980 (0.00) s
GridName=  1  383      5.3979 (0.00) s
GridName=  1  382      5.3965 (0.00) s
GridName=  1  381      5.3961 (0.00) s
GridName=  1  380      5.3155 (0.00) s
GridName=  1  379      5.3011 (0.00) s
GridName=  1  378      5.3000 (0.00) s
GridName=  1  377      5.2996 (0.00) s
GridName=  1  376      5.1924 (0.00) s
GridName=  1  375      5.1923 (0.00) s
GridName=  1  374      5.1472 (0.00) s
GridName=  1  373      5.1470 (0.00) s
GridName=  1  372      5.1383 (0.00) s
GridName=  1  371      5.1380 (0.00) s
GridName=  1  370      5.1143 (0.00) s
GridName=  1  369      5.1142 (0.00) s
GridName=  1  368      5.0807 (0.00) s
GridName=  1  367      5.0677 (0.00) s
GridName=  1  366      5.0372 (0.00) s
GridName=  1  365      5.0367 (0.00) s
GridName=  1  364      5.0336 (0.00) s
GridName=  1  363      5.0335 (0.00) s
GridName=  1  361      4.9937 (0.00) s
GridName=  1  362      4.9937 (0.00) s
GridName=  1  360      4.9004 (0.00) s
GridName=  1  359      4.8916 (0.00) s
GridName=  1  358      4.8802 (0.00) s
GridName=  1  356      4.8415 (0.00) s
GridName=  1  357      4.8415 (0.00) s
GridName=  1  355      4.7526 (0.00) s
GridName=  1  354      4.7525 (0.00) s
GridName=  1  353      4.6994 (0.00) s
GridName=  1  352      4.6829 (0.00) s
GridName=  1  351      4.6828 (0.00) s
GridName=  1  350      4.6733 (0.00) s
GridName=  1  349      4.6730 (0.00) s
GridName=  1  348      4.6591 (0.00) s
GridName=  1  347      4.5555 (0.00) s
GridName=  1  346      4.4654 (0.00) s
GridName=  1  345      4.4653 (0.00) s
GridName=  1  344      4.4245 (0.00) s
GridName=  1  343      4.4244 (0.00) s
GridName=  1  342      4.4210 (0.00) s
GridName=  1  341      4.3978 (0.00) s
GridName=  1  340      4.3976 (0.00) s
GridName=  1  338      4.3880 (0.00) s
GridName=  1  339      4.3880 (0.00) s
GridName=  1  337      4.3822 (0.00) s
GridName=  1  336      4.3190 (0.00) s
GridName=  1  335      4.3188 (0.00) s
GridName=  1  334      4.3119 (0.00) s
GridName=  1  333      4.2870 (0.00) s
GridName=  1  332      4.2868 (0.00) s
GridName=  1  331      4.2391 (0.00) s
GridName=  1  330      4.2361 (0.00) s
GridName=  1  329      4.2022 (0.00) s
GridName=  1  328      4.2018 (0.00) s
GridName=  1  327      4.1615 (0.00) s
GridName=  1  326      4.1461 (0.00) s
GridName=  1  325      4.1336 (0.00) s
GridName=  1  324      4.0893 (0.00) s
GridName=  1  323      4.0885 (0.00) s
GridName=  1  322      4.0883 (0.00) s
GridName=  1  321      4.0635 (0.00) s
GridName=  1  320      4.0632 (0.00) s
GridName=  1  319      4.0153 (0.00) s
GridName=  1  318      4.0040 (0.00) s
GridName=  1  317      4.0038 (0.00) s
GridName=  1  316      3.9865 (0.00) s
GridName=  1  315      3.9861 (0.00) s
GridName=  1  314      3.9431 (0.00) s
GridName=  1  313      3.9425 (0.00) s
GridName=  1  312      3.9423 (0.00) s
GridName=  1  310      3.9164 (0.00) s
GridName=  1  311      3.9164 (0.00) s
GridName=  1  309      3.8212 (0.00) s
GridName=  1  308      3.8211 (0.00) s
GridName=  1  307      3.7943 (0.00) s
GridName=  1  306      3.7941 (0.00) s
GridName=  1  304      3.7909 (0.00) s
GridName=  1  305      3.7909 (0.00) s
GridName=  1  303      3.7838 (0.00) s
GridName=  1  302      3.7837 (0.00) s
GridName=  1  301      3.7667 (0.00) s
GridName=  1  300      3.7625 (0.00) s
GridName=  1  299      3.7289 (0.00) s
GridName=  1  298      3.7043 (0.00) s
GridName=  1  297      3.6178 (0.00) s
GridName=  1  296      3.6091 (0.00) s
GridName=  1  295      3.6090 (0.00) s
GridName=  1  294      3.5833 (0.00) s
GridName=  1  293      3.5680 (0.00) s
GridName=  1  292      3.5372 (0.00) s
GridName=  1  290      3.5267 (0.00) s
GridName=  1  291      3.5267 (0.00) s
GridName=  1  288      3.5037 (0.00) s
GridName=  1  289      3.5037 (0.00) s
GridName=  1  287      3.4850 (0.00) s
GridName=  1  286      3.4849 (0.00) s
GridName=  1  285      3.4773 (0.00) s
GridName=  1  284      3.4771 (0.00) s
GridName=  1  283      3.3864 (0.00) s
GridName=  1  282      3.3863 (0.00) s
GridName=  1  281      3.3624 (0.00) s
GridName=  1  280      3.3534 (0.00) s
GridName=  1  279      3.3376 (0.00) s
GridName=  1  278      3.3313 (0.00) s
GridName=  1  277      3.3312 (0.00) s
GridName=  1  276      3.3207 (0.00) s
GridName=  1  275      3.3203 (0.00) s
GridName=  1  274      3.2759 (0.00) s
GridName=  1  272      3.2711 (0.00) s
GridName=  1  273      3.2711 (0.00) s
GridName=  1  271      3.2551 (0.00) s
GridName=  1  270      3.1756 (0.00) s
GridName=  1  269      3.1755 (0.00) s
GridName=  1  267      3.1151 (0.00) s
GridName=  1  268      3.1151 (0.00) s
GridName=  1  266      3.0792 (0.00) s
GridName=  1  265      3.0410 (0.00) s
GridName=  1  264      3.0409 (0.00) s
GridName=  1  263      2.8784 (0.00) s
GridName=  1  262      2.7998 (0.00) s
GridName=  1  261      2.7996 (0.00) s
GridName=  1  260      2.7960 (0.00) s
GridName=  1  259      2.7632 (0.00) s
GridName=  1  258      2.7317 (0.00) s
GridName=  1  257      2.7121 (0.00) s
GridName=  1  256      2.6792 (0.00) s
GridName=  1  255      2.6467 (0.00) s
GridName=  1  254      2.5600 (0.00) s
GridName=  1  253      2.5594 (0.00) s
GridName=  1  252      2.5334 (0.00) s
GridName=  1  251      2.5269 (0.00) s
GridName=  1  250      2.5268 (0.00) s
GridName=  1  249      2.4694 (0.00) s
GridName=  1  248      2.4693 (0.00) s
GridName=  1  247      2.3977 (0.00) s
GridName=  1  246      2.3653 (0.00) s
GridName=  1  245      2.3361 (0.00) s
GridName=  1  244      2.3360 (0.00) s
GridName=  1  243      2.3308 (0.00) s
GridName=  1  242      2.3307 (0.00) s
GridName=  1  241      2.3177 (0.00) s
GridName=  1  240      2.3006 (0.00) s
GridName=  1  239      2.3002 (0.00) s
GridName=  1  238      2.2334 (0.00) s
GridName=  1  237      2.2333 (0.00) s
GridName=  1  236      2.1879 (0.00) s
GridName=  1  235      2.1878 (0.00) s
GridName=  1  234      2.0861 (0.00) s
GridName=  1  232      2.0638 (0.00) s
GridName=  1  233      2.0638 (0.00) s
GridName=  1  231      2.0625 (0.00) s
GridName=  1  230      2.0496 (0.00) s
GridName=  1  229      2.0492 (0.00) s
GridName=  1  228      2.0279 (0.00) s
GridName=  1  227      2.0204 (0.00) s
GridName=  1  226      2.0201 (0.00) s
GridName=  1  225      2.0065 (0.00) s
GridName=  1  223      1.9759 (0.00) s
GridName=  1  224      1.9759 (0.00) s
GridName=  1  222      1.9715 (0.00) s
GridName=  1  221      1.9714 (0.00) s
GridName=  1  220      1.9556 (0.00) s
GridName=  1  219      1.9555 (0.00) s
GridName=  1  218      1.9285 (0.00) s
GridName=  1  217      1.8876 (0.00) s
GridName=  1  216      1.8756 (0.00) s
GridName=  1  215      1.8755 (0.00) s
GridName=  1  214      1.8463 (0.00) s
GridName=  1  213      1.8462 (0.00) s
GridName=  1  212      1.8449 (0.00) s
GridName=  1  211      1.8138 (0.00) s
GridName=  1  210      1.7999 (0.00) s
GridName=  1  209      1.7998 (0.00) s
GridName=  1  208      1.7895 (0.00) s
GridName=  1  207      1.7894 (0.00) s
GridName=  1  206      1.7879 (0.00) s
GridName=  1  205      1.7537 (0.00) s
GridName=  1  204      1.7357 (0.00) s
GridName=  1  203      1.7205 (0.00) s
GridName=  1  202      1.7204 (0.00) s
GridName=  1  200      1.6765 (0.00) s
GridName=  1  201      1.6765 (0.00) s
GridName=  1  199      1.6727 (0.00) s
GridName=  1  198      1.6544 (0.00) s
GridName=  1  197      1.6543 (0.00) s
GridName=  1  196      1.6368 (0.00) s
GridName=  1  195      1.6366 (0.00) s
GridName=  1  194      1.5986 (0.00) s
GridName=  1  193      1.5190 (0.00) s
GridName=  1  192      1.4823 (0.00) s
GridName=  1  191      1.4822 (0.00) s
GridName=  1  190      1.4785 (0.00) s
GridName=  1  189      1.4777 (0.00) s
GridName=  1  188      1.4776 (0.00) s
GridName=  1  187      1.4577 (0.00) s
GridName=  1  186      1.4409 (0.00) s
GridName=  1  185      1.4408 (0.00) s
GridName=  1  184      1.3986 (0.00) s
GridName=  1  183      1.3697 (0.00) s
GridName=  1  182      1.3696 (0.00) s
GridName=  1  180      1.3695 (0.00) s
GridName=  1  181      1.3695 (0.00) s
GridName=  1  179      1.3680 (0.00) s
GridName=  1  178      1.3412 (0.00) s
GridName=  1  176      1.3330 (0.00) s
GridName=  1  177      1.3330 (0.00) s
GridName=  1  175      1.2920 (0.00) s
GridName=  1  173      1.2408 (0.00) s
GridName=  1  174      1.2408 (0.00) s
GridName=  1  172      1.2407 (0.00) s
GridName=  1  171      1.2316 (0.00) s
GridName=  1  169      1.2122 (0.00) s
GridName=  1  170      1.2122 (0.00) s
GridName=  1  167      1.1937 (0.00) s
GridName=  1  168      1.1937 (0.00) s
GridName=  1  166      1.1899 (0.00) s
GridName=  1  164      1.1788 (0.00) s
GridName=  1  165      1.1788 (0.00) s
GridName=  1  163      1.1561 (0.00) s
GridName=  1  162      1.1560 (0.00) s
GridName=  1  160      1.1407 (0.00) s
GridName=  1  161      1.1407 (0.00) s
GridName=  1  159      1.1261 (0.00) s
GridName=  1  157      1.1198 (0.00) s
GridName=  1  158      1.1198 (0.00) s
GridName=  1  155      1.0754 (0.00) s
GridName=  1  156      1.0754 (0.00) s
GridName=  1  154      1.0733 (0.00) s
GridName=  1  153      1.0731 (0.00) s
GridName=  1  152      1.0713 (0.00) s
GridName=  1  151      1.0700 (0.00) s
GridName=  1  149      1.0559 (0.00) s
GridName=  1  150      1.0559 (0.00) s
GridName=  1  148      1.0500 (0.00) s
GridName=  1  146      1.0362 (0.00) s
GridName=  1  147      1.0362 (0.00) s
GridName=  1  145      1.0095 (0.00) s
GridName=  1  144      1.0094 (0.00) s
GridName=  1  142      1.0045 (0.00) s
GridName=  1  143      1.0045 (0.00) s
GridName=  1  141      0.9625 (0.00) s
GridName=  1  140      0.9611 (0.00) s
GridName=  1  139      0.9611 (0.00) s
GridName=  1  138      0.9305 (0.00) s
GridName=  1  137      0.9274 (0.00) s
GridName=  1  136      0.9231 (0.00) s
GridName=  1  135      0.9231 (0.00) s
GridName=  1  134      0.8861 (0.00) s
GridName=  1  133      0.8817 (0.00) s
GridName=  1  132      0.8816 (0.00) s
GridName=  1  131      0.8751 (0.00) s
GridName=  1  130      0.8666 (0.00) s
GridName=  1  129      0.8563 (0.00) s
GridName=  1  128      0.8483 (0.00) s
GridName=  1  127      0.8482 (0.00) s
GridName=  1  126      0.8404 (0.00) s
GridName=  1  125      0.8403 (0.00) s
GridName=  1  124      0.8234 (0.00) s
GridName=  1  123      0.8234 (0.00) s
GridName=  1  122      0.8173 (0.00) s
GridName=  1  121      0.8093 (0.00) s
GridName=  1  120      0.7921 (0.00) s
GridName=  1  119      0.7921 (0.00) s
GridName=  1  118      0.7771 (0.00) s
GridName=  1  117      0.7652 (0.00) s
GridName=  1  116      0.7363 (0.00) s
GridName=  1  115      0.7362 (0.00) s
GridName=  1  114      0.7314 (0.00) s
GridName=  1  113      0.7070 (0.00) s
GridName=  1  112      0.7068 (0.00) s
GridName=  1  111      0.6987 (0.00) s
GridName=  1  110      0.6969 (0.00) s
GridName=  1  109      0.6902 (0.00) s
GridName=  1  108      0.6791 (0.00) s
GridName=  1  107      0.6791 (0.00) s
GridName=  1  106      0.6468 (0.00) s
GridName=  1  105      0.6467 (0.00) s
GridName=  1  104      0.6306 (0.00) s
GridName=  1  103      0.6305 (0.00) s
GridName=  1  102      0.6087 (0.00) s
GridName=  1  101      0.6087 (0.00) s
GridName=  1  100      0.6075 (0.00) s
GridName=  1   99      0.6074 (0.00) s
GridName=  1   98      0.5968 (0.00) s
GridName=  1   97      0.5482 (0.00) s
GridName=  1   96      0.5323 (0.00) s
GridName=  1   95      0.5279 (0.00) s
GridName=  1   94      0.5278 (0.00) s
GridName=  1   93      0.5145 (0.00) s
GridName=  1   92      0.5039 (0.00) s
GridName=  1   91      0.5039 (0.00) s
GridName=  1   90      0.5013 (0.00) s
GridName=  1   89      0.5012 (0.00) s
GridName=  1   88      0.4917 (0.00) s
GridName=  1   87      0.4766 (0.00) s
GridName=  1   86      0.4667 (0.00) s
GridName=  1   85      0.4666 (0.00) s
GridName=  1   84      0.4640 (0.00) s
GridName=  1   83      0.4532 (0.00) s
GridName=  1   82      0.4531 (0.00) s
GridName=  1   81      0.4430 (0.00) s
GridName=  1   80      0.4429 (0.00) s
GridName=  1   79      0.4381 (0.00) s
GridName=  1   78      0.4252 (0.00) s
GridName=  1   77      0.4252 (0.00) s
GridName=  1   76      0.4244 (0.00) s
GridName=  1   75      0.4146 (0.00) s
GridName=  1   74      0.4145 (0.00) s
GridName=  1   73      0.3967 (0.00) s
GridName=  1   72      0.3814 (0.00) s
GridName=  1   70      0.3628 (0.00) s
GridName=  1   71      0.3628 (0.00) s
GridName=  1   69      0.3379 (0.00) s
GridName=  1   68      0.3354 (0.00) s
GridName=  1   67      0.3354 (0.00) s
GridName=  1   66      0.3317 (0.00) s
GridName=  1   65      0.3317 (0.00) s
GridName=  1   64      0.3234 (0.00) s
GridName=  1   63      0.3064 (0.00) s
GridName=  1   62      0.3063 (0.00) s
GridName=  1   61      0.2938 (0.00) s
GridName=  1   60      0.2938 (0.00) s
GridName=  1   59      0.2911 (0.00) s
GridName=  1   58      0.2906 (0.00) s
GridName=  1   57      0.2830 (0.00) s
GridName=  1   56      0.2802 (0.00) s
GridName=  1   55      0.2802 (0.00) s
GridName=  1   54      0.2502 (0.00) s
GridName=  1   53      0.2457 (0.00) s
GridName=  1   52      0.2456 (0.00) s
GridName=  1   51      0.2363 (0.00) s
GridName=  1   49      0.2363 (0.00) s
GridName=  1   50      0.2363 (0.00) s
GridName=  1   48      0.2297 (0.00) s
GridName=  1   47      0.1574 (0.00) s
GridName=  1   45      0.1533 (0.00) s
GridName=  1   46      0.1533 (0.00) s
GridName=  1   44      0.1488 (0.00) s
GridName=  1   42      0.1357 (0.00) s
GridName=  1   43      0.1357 (0.00) s
GridName=  1   40      0.1350 (0.00) s
GridName=  1   41      0.1350 (0.00) s
GridName=  1   39      0.1211 (0.00) s
GridName=  1   38      0.1211 (0.00) s
GridName=  1   37      0.1163 (0.00) s
GridName=  1   36      0.1154 (0.00) s
GridName=  1   35      0.1093 (0.00) s
GridName=  1   34      0.1093 (0.00) s
GridName=  1   33      0.1003 (0.00) s
GridName=  1   32      0.0999 (0.00) s
GridName=  1   31      0.0999 (0.00) s
GridName=  1   30      0.0807 (0.00) s
GridName=  1   29      0.0632 (0.00) s
GridName=  1   28      0.0448 (0.00) s
GridName=  1   27      0.0448 (0.00) s
GridName=  1   26      0.0275 (0.00) s
GridName=  1   25      0.0274 (0.00) s
GridName=  1   23      0.0000 (0.24) 2
GridName=  1   22      0.0000 (0.24) 2
GridName=  1   24      0.0000 (0.50) 2
GridName=  1   21      0.0000 (1.59) 2
GridName=  1   20      0.0000 (1.59) 2
GridName=  1   19      0.0000 (1.84) 2
GridName=  1   18     -0.5415 (2.00) i
GridName=  1   17     -0.5415 (2.00) i
GridName=  1   16     -0.6358 (2.00) i
GridName=  1   15     -0.6359 (2.00) i
GridName=  1   14     -0.6727 (2.00) i
GridName=  1   13     -0.6852 (2.00) i
GridName=  1   12     -0.7580 (2.00) i
GridName=  1   11     -0.8729 (2.00) i
GridName=  1   10     -0.8730 (2.00) i
GridName=  1    9     -1.0649 (2.00) i
GridName=  1    8     -1.0650 (2.00) i
GridName=  1    7     -1.2041 (2.00) i
GridName=  1    4    -11.2850 (2.00) i
GridName=  1    5    -11.2850 (2.00) i
GridName=  1    6    -11.2850 (2.00) i
GridName=  1    1    -11.2870 (2.00) i
GridName=  1    2    -11.2870 (2.00) i
GridName=  1    3    -11.2870 (2.00) i
 
The total execution time is limited to 42960 seconds.
--- Stop Module: grid_it at Mon Jul 18 17:08:07 2022 /rc=_RC_ALL_IS_WELL_ ---
*** files: ul-C1.lus xmldump
    saved to directory /work/donglab/kaufold.b/Label-Tutorial/ul-C1
--- Module grid_it spent 2 seconds ---

.##################.
.# Happy landing! #.
.##################.

    Timing: Wall=11409.80 User=77893.63 System=5449.71
*************************************************************************
*** WorkDir at /scratch/kaufold.b/OpenMolcas/29131712_0/ul-C1 cleaned ***
*************************************************************************
