   This run of MOLCAS is using the pymolcas driver

                             OPE
                             OPE          NMOL  CASOP  ENMOLC A   SO
                 OPE        NMOLC        AS  OP EN  MO LC     AS  OP
                OPENM       OL CA        SO  PE NM  OL CA     SOP EN
                OP EN      MO   LC       AS  OP ENMOL  CASO   PENMOL
                OP  EN     MO   LC       AS  OP EN     MO     LC ASO
               OP   E  NMOL  C  AS       OP  EN MO     LC     AS  OP
               OP  E   NMO   LC AS        OPEN  MO     LCASOP EN   M
               O  PEN   MO  LCA  SO
            OPE   NMO   L   CAS    OP
        OPENMOL  CASOP     ENMOL   CASOPE
     OPENMOLCA   SOPENMOLCASOPEN   MOLCASOPE
    OPENMOLCAS   OP           EN   MOL    CAS
    OPENMOLCAS       OP  ENM        O     LCA
    OPENMOLCAS    OPEN  MOLCASO     P  E  NMO
    OPENMOLCAS     OP               E  N  MOL
    OPENMOLCA   SO           PENM   O  L  CAS    OPEN    MO    LCAS
    OPENMOLCA   SOP           ENM   O  L  CAS   OP  EN  MOLC  AS   O
    OPENMOLCA   SOPE           NM      O  LCA   S      OP  EN MO
    OPENMOLC                AS         O  PEN   M      OL  CA  SOPE
    OPENMO        LCASOPE  NMOL        C  ASO   P      ENMOLC     AS
    OPE     NMO      LCA  SO     P     E   NM   OL  CA SO  PE N   MO
          OPENMOLCA            SOPE   NMO        LCAS  O    P  ENMO
     OPENMOLCASOPENMOLCASOPENMOLCASOPENMOLCA
        OPENMOLCASOPENMOLCASOPENMOLCASOPE
            OPENMOLCASOPENMOLCASOPENM
               OPENMOLCASOPENMOLCA        version: 22.02
                   OPENMOLCASO
                       OPE                tag: 112-ge90b629

 OpenMolcas is free software; you can redistribute it and/or modify it
 under the terms of the GNU Lesser General Public License version 2.1.
 OpenMolcas is distributed in the hope that it will be useful, but it
 is provided "as is" and without any express or implied warranties.
 For more details see the full text of the license in the file
 LICENSE or in <http://www.gnu.org/licenses/>.

                 Copyright (C) The OpenMolcas Authors
           For the author list and the recommended citation,
                   consult the file CONTRIBUTORS.md

           *************************************************
           * pymolcas version py2.22                       *
           *   build 8f5156e7c298caa029894eefd30f00af      *
           *   (after the EMIL interpreter by V. Veryazov) *
           *************************************************

configuration info
------------------
Host name: d3070 (Linux)
C Compiler ID: Intel
C flags: -O2 -fpic -march=skylake-avx512 -std=gnu99 -gcc-sys -qopenmp
Fortran Compiler ID: Intel
Fortran flags: -O2 -fpic -march=skylake-avx512  -fpp -i8 -r8 -heap-arrays -qopenmp
Definitions: _MOLCAS_;_I8_;_LINUX_;_MOLCAS_MPP_;_SCALAPACK_;_GA_
Parallel: ON (GA=ON)


   --------------------------------------------------------------------------------------
  |
  |              Project: ul-D2h
  |       Submitted from: /work/donglab/kaufold.b/Label-Tutorial
  |         Scratch area: /scratch/kaufold.b/OpenMolcas/29124419_0/ul-D2h
  |      Save outputs to: /work/donglab/kaufold.b/Label-Tutorial/ul-D2h
  |               Molcas: /shared/centos7/openmolcas/22.02-intel-cascadelake-wfa
  |
  | Scratch area is empty
  |
  |       MOLCAS_DRIVER = /shared/centos7/openmolcas/22.02-intel-cascadelake-wfa/pymolcas
  | MOLCAS_KEEP_WORKDIR = NO
  |      MOLCAS_MAXITER = 10000
  |       MOLCAS_MAXMEM = 51975
  |       MOLCAS_MOLDEN = ON
  | MOLCAS_NEW_DEFAULTS = NO
  |       MOLCAS_NPROCS = 1
  |         MOLCAS_SAVE = ORIG
  |       MOLCAS_SOURCE = /shared/centos7/openmolcas/22.02-intel-cascadelake-wfa
  |    MOLCAS_STRUCTURE = 0
  |      MOLCAS_TIMELIM = 21360
  |     MOLCAS_VALIDATE = YES
  |
   --------------------------------------------------------------------------------------


--- Start Module: gateway at Mon Jul 18 10:17:59 2022 ---

-- Input validation for gateway
lxml python module not found, no validation possible
--
 
()()()()()()()()()()()()()()()()()()()()()()()()()()()()()()()()()()()()()()()()()()()()()()()()()()

                                              &GATEWAY

                       only a single process is used, running in SERIAL mode
                       available to each process: 46 GB of memory, 16 threads
                                            pid: 186462
()()()()()()()()()()()()()()()()()()()()()()()()()()()()()()()()()()()()()()()()()()()()()()()()()()
 
      Found SYMMETRY generators: x y z
 ###############################################################################
 ###############################################################################
 ###                                                                         ###
 ###                                                                         ###
 ###    Warning! XYZ coordinates will be modified to match                   ###
 ###    the specified/detected symmetry. Use SYMT = 0.0 if                   ###
 ###    this is not desired.                                                 ###
 ###                                                                         ###
 ###                                                                         ###
 ###############################################################################
 ###############################################################################
 
 Title:
                                    Benzene MR with Symmetry                            
 
 
++    Symmetry information:
      ---------------------
 
                    --- Group Generators ---
                    Reflection in the yz-plane  
                    Reflection in the xz-plane  
                    Reflection in the xy-plane  
 
                    Character Table for D2h
 
                             E   s(yz) s(xz) C2(z) s(xy) C2(y) C2(x)   i  
                    ag       1     1     1     1     1     1     1     1  
                    b3u      1    -1     1    -1     1    -1     1    -1  x
                    b2u      1     1    -1    -1     1     1    -1    -1  y
                    b1g      1    -1    -1     1     1    -1    -1     1  xy, Rz
                    b1u      1     1     1     1    -1    -1    -1    -1  z
                    b2g      1    -1     1    -1    -1     1    -1     1  xz, Ry
                    b3g      1     1    -1    -1    -1    -1     1     1  yz, Rx
                    au       1    -1    -1     1    -1     1     1    -1  I
--
 
 
++    Basis set information:
      ----------------------
 
 
      Basis set label: H.AUG-CC-PVTZ.........
 
      Electronic valence basis set:
      ------------------
      Associated Effective Charge   1.000000 au
      Associated Actual Charge      1.000000 au
      Nuclear Model: Point charge
 
      Shell  nPrim  nBasis  Cartesian Spherical Contaminant
         s       6       4        X                  
         p       3       3        X                  
         d       2       2                 X         
 
 
      Basis set label: C.AUG-CC-PVTZ.........
 
      Electronic valence basis set:
      ------------------
      Associated Effective Charge   6.000000 au
      Associated Actual Charge      6.000000 au
      Nuclear Model: Point charge
 
      Shell  nPrim  nBasis  Cartesian Spherical Contaminant
         s      11       5        X                  
         p       6       4        X                  
         d       3       3                 X         
         f       2       2                 X         
--
 
 
++    Molecular structure info:
      -------------------------
 
                    ************************************************ 
                    **** Cartesian Coordinates / Bohr, Angstrom **** 
                    ************************************************ 
 
     Center  Label                x              y              z                     x              y              z
        1      H1               0.000000       4.672658       0.000000              0.000000       2.472664       0.000000
        2      H1               0.000000      -4.672658       0.000000              0.000000      -2.472664       0.000000
        3      H2               4.047232       2.335660       0.000000              2.141703       1.235978       0.000000
        4      H2              -4.047232       2.335660       0.000000             -2.141703       1.235978       0.000000
        5      H2               4.047232      -2.335660       0.000000              2.141703      -1.235978       0.000000
        6      H2              -4.047232      -2.335660       0.000000             -2.141703      -1.235978       0.000000
        7      C3               0.000000       2.628293       0.000000              0.000000       1.390833       0.000000
        8      C3               0.000000      -2.628293       0.000000              0.000000      -1.390833       0.000000
        9      C4               2.276482       1.314007       0.000000              1.204663       0.695343       0.000000
       10      C4              -2.276482       1.314007       0.000000             -1.204663       0.695343       0.000000
       11      C4               2.276482      -1.314007       0.000000              1.204663      -0.695343       0.000000
       12      C4              -2.276482      -1.314007       0.000000             -1.204663      -0.695343       0.000000
 
                    *************************************** 
                    *    InterNuclear Distances / Bohr    * 
                    *************************************** 
 
               1 H1            2 H1            3 H2            4 H2            5 H2            6 H2    
    1 H1       0.000000
    2 H1       9.345316        0.000000
    3 H2       4.673505        8.092997        0.000000
    4 H2       4.673505        8.092997        8.094465        0.000000
    5 H2       8.092997        4.673505        4.671319        9.345672        0.000000
    6 H2       8.092997        4.673505        9.345672        4.671319        8.094465        0.000000
    7 C3       2.044365        7.300951        4.057798        4.057798        6.404757        6.404757
    8 C3       7.300951        2.044365        6.404757        6.404757        4.057798        4.057798
    9 C4       4.057451        6.404883        2.044341        6.405712        4.056553        7.301331
   10 C4       4.057451        6.404883        6.405712        2.044341        7.301331        4.056553
   11 C4       6.404883        4.057451        4.056553        7.301331        2.044341        6.405712
   12 C4       6.404883        4.057451        7.301331        4.056553        6.405712        2.044341
 
               7 C3            8 C3            9 C4           10 C4           11 C4           12 C4    
    7 C3       0.000000
    8 C3       5.256586        0.000000
    9 C4       2.628635        4.552373        0.000000
   10 C4       2.628635        4.552373        4.552965        0.000000
   11 C4       4.552373        2.628635        2.628014        5.256990        0.000000
   12 C4       4.552373        2.628635        5.256990        2.628014        4.552965        0.000000
 
                    ******************************************* 
                    *    InterNuclear Distances / Angstrom    * 
                    ******************************************* 
 
               1 H1            2 H1            3 H2            4 H2            5 H2            6 H2    
    1 H1       0.000000
    2 H1       4.945328        0.000000
    3 H2       2.473112        4.282630        0.000000
    4 H2       2.473112        4.282630        4.283406        0.000000
    5 H2       4.282630        2.473112        2.471956        4.945517        0.000000
    6 H2       4.282630        2.473112        4.945517        2.471956        4.283406        0.000000
    7 C3       1.081831        3.863497        2.147294        2.147294        3.389252        3.389252
    8 C3       3.863497        1.081831        3.389252        3.389252        2.147294        2.147294
    9 C4       2.147111        3.389318        1.081819        3.389757        2.146635        3.863698
   10 C4       2.147111        3.389318        3.389757        1.081819        3.863698        2.146635
   11 C4       3.389318        2.147111        2.146635        3.863698        1.081819        3.389757
   12 C4       3.389318        2.147111        3.863698        2.146635        3.389757        1.081819
 
               7 C3            8 C3            9 C4           10 C4           11 C4           12 C4    
    7 C3       0.000000
    8 C3       2.781666        0.000000
    9 C4       1.391014        2.409012        0.000000
   10 C4       1.391014        2.409012        2.409325        0.000000
   11 C4       2.409012        1.391014        1.390685        2.781879        0.000000
   12 C4       2.409012        1.391014        2.781879        1.390685        2.409325        0.000000
 
                    ************************************** 
                    *    Valence Bond Angles / Degree    * 
                    ************************************** 
                          Atom centers                 Phi
                      1 H1       7 C3       9 C4       120.00
                      1 H1       7 C3      10 C4       120.00
                      9 C4       7 C3      10 C4       120.00
                      2 H1       8 C3      11 C4       120.00
                      2 H1       8 C3      12 C4       120.00
                     11 C4       8 C3      12 C4       120.00
                      3 H2       9 C4       7 C3       120.02
                      3 H2       9 C4      11 C4       119.98
                      7 C3       9 C4      11 C4       120.00
                      4 H2      10 C4       7 C3       120.02
                      4 H2      10 C4      12 C4       119.98
                      7 C3      10 C4      12 C4       120.00
                      5 H2      11 C4       8 C3       120.02
                      5 H2      11 C4       9 C4       119.98
                      8 C3      11 C4       9 C4       120.00
                      6 H2      12 C4       8 C3       120.02
                      6 H2      12 C4      10 C4       119.98
                      8 C3      12 C4      10 C4       120.00
 
           ***************************************************************
           *              Valence Dihedral Angles / Degree               *
           ***************************************************************
                    Atom centers                       Phi1     Phi2     Theta 
           1 H1       7 C3       9 C4       3 H2        120.00   120.02     0.00
           1 H1       7 C3       9 C4      11 C4        120.00   120.00  -180.00
          10 C4       7 C3       9 C4      11 C4        120.00   120.00     0.00
           1 H1       7 C3      10 C4       4 H2        120.00   120.02     0.00
           1 H1       7 C3      10 C4      12 C4        120.00   120.00  -180.00
           9 C4       7 C3      10 C4      12 C4        120.00   120.00     0.00
           2 H1       8 C3      11 C4       5 H2        120.00   120.02     0.00
           2 H1       8 C3      11 C4       9 C4        120.00   120.00  -180.00
           2 H1       8 C3      12 C4       6 H2        120.00   120.02     0.00
           2 H1       8 C3      12 C4      10 C4        120.00   120.00  -180.00
           3 H2       9 C4       7 C3      10 C4        120.02   120.00  -180.00
           3 H2       9 C4      11 C4       5 H2        119.98   119.98     0.00
           3 H2       9 C4      11 C4       8 C3        119.98   120.00  -180.00
           7 C3       9 C4      11 C4       8 C3        120.00   120.00     0.00
           4 H2      10 C4       7 C3       9 C4        120.02   120.00  -180.00
           4 H2      10 C4      12 C4       6 H2        119.98   119.98     0.00
           4 H2      10 C4      12 C4       8 C3        119.98   120.00  -180.00
           7 C3      10 C4      12 C4       8 C3        120.00   120.00     0.00
           5 H2      11 C4       8 C3      12 C4        120.02   120.00  -180.00
           9 C4      11 C4       8 C3      12 C4        120.00   120.00     0.00
           5 H2      11 C4       9 C4       7 C3        119.98   120.00  -180.00
           6 H2      12 C4       8 C3      11 C4        120.02   120.00  -180.00
          10 C4      12 C4       8 C3      11 C4        120.00   120.00     0.00
           6 H2      12 C4      10 C4       7 C3        119.98   120.00  -180.00
--
 
 
            Nuclear Potential Energy            204.04227156 au
 
The total execution time is limited to 21360 seconds.
--- Stop Module: gateway at Mon Jul 18 10:17:59 2022 /rc=_RC_ALL_IS_WELL_ ---
*** files: xmldump
    saved to directory /work/donglab/kaufold.b/Label-Tutorial/ul-D2h

--- Start Module: seward at Mon Jul 18 10:17:59 2022 ---

-- Input validation for seward
lxml python module not found, no validation possible
--
 
()()()()()()()()()()()()()()()()()()()()()()()()()()()()()()()()()()()()()()()()()()()()()()()()()()

                                              &SEWARD

                       only a single process is used, running in SERIAL mode
                       available to each process: 46 GB of memory, 16 threads
                                            pid: 186480
()()()()()()()()()()()()()()()()()()()()()()()()()()()()()()()()()()()()()()()()()()()()()()()()()()
 
               SEWARD will generate:
                  Multipole Moment integrals up to order  2
                  Kinetic Energy integrals
                  Nuclear Attraction integrals (point charge)
                  One-Electron Hamiltonian integrals
                  Velocity integrals
                  Orbital angular momentum around ( 0.0000  0.0000  0.0000 )
                  Velocity quadrupole around ( 0.0000  0.0000  0.0000 )
                  Two-Electron Repulsion integrals
 
 Title:
                                    Benzene MR with Symmetry                            
 
 
                   Integrals are discarded if absolute value <: 0.10E-13
                   Integral cutoff threshold is set to       <: 0.10E-15
 
                    Unitary symmetry adaptation
 
 
            Nuclear Potential Energy            204.04227156 au
 
 
      Basis set specifications :
      Symmetry species         ag   b3u  b2u  b1g  b1u  b2g  b3g  au 
      Basis functions           76   62   76   62   39   30   39   30
 
 
      Input file to MOLDEN was generated!
 
The total execution time is limited to 21360 seconds.
--- Stop Module: seward at Mon Jul 18 10:30:04 2022 /rc=_RC_ALL_IS_WELL_ ---
*** files: ul-D2h.GssOrb ul-D2h.guessorb.h5 ul-D2h.guessorb.molden xmldump
    saved to directory /work/donglab/kaufold.b/Label-Tutorial/ul-D2h
--- Module seward spent 12 minutes 4 seconds ---

*** symbolic link created: INPORB -> ul-D2h.GssOrb
--- Start Module: rasscf at Mon Jul 18 10:30:04 2022 ---

-- Input validation for rasscf
lxml python module not found, no validation possible
--
 
()()()()()()()()()()()()()()()()()()()()()()()()()()()()()()()()()()()()()()()()()()()()()()()()()()

                                              &RASSCF

                       only a single process is used, running in SERIAL mode
                       available to each process: 46 GB of memory, 16 threads
                                            pid: 187560
()()()()()()()()()()()()()()()()()()()()()()()()()()()()()()()()()()()()()()()()()()()()()()()()()()
 
 ###############################################################################
 ###############################################################################
 ###                                                                         ###
 ###                                                                         ###
 ###    WARNING: CHARGE and NACTEL are only compatible if INACTIVE           ###
 ###    is not given and the symmetry group is C1. Hence the                 ###
 ###    CHARGE command will be ignored.                                      ###
 ###                                                                         ###
 ###                                                                         ###
 ###############################################################################
 ###############################################################################
 
      Header of the ONEINT file:
      --------------------------
      
      Integrals generated by Gateway/Seward, Mon Jul 18 10:17:59 2022
 
 
      OrdInt status: non-squared
 
 
      Cartesian coordinates in Angstrom:
      -----------------------------------------------------
      No.  Label        X            Y            Z        
      -----------------------------------------------------
       1   H1         0.00000000   2.47266405   0.00000000
       2   H2         2.14170318   1.23597787   0.00000000
       3   C3         0.00000000   1.39083283   0.00000000
       4   C4         1.20466254   0.69534255   0.00000000
       5   H1         0.00000000  -2.47266405   0.00000000
       6   H2        -2.14170318   1.23597787   0.00000000
       7   H2         2.14170318  -1.23597787   0.00000000
       8   H2        -2.14170318  -1.23597787   0.00000000
       9   C3         0.00000000  -1.39083283   0.00000000
      10   C4        -1.20466254   0.69534255   0.00000000
      11   C4         1.20466254  -0.69534255   0.00000000
      12   C4        -1.20466254  -0.69534255   0.00000000
      -----------------------------------------------------
      Nuclear repulsion energy =  204.04227156
 
++    Wave function specifications:
      -----------------------------
 
      Number of closed shell electrons          36
      Number of electrons in active shells       6
      Max number of holes in RAS1 space          0
      Max nr of electrons in RAS3 space          0
      Number of inactive orbitals               18
      Number of active orbitals                  6
      Number of secondary orbitals             390
      Spin quantum number                      0.0
      State symmetry                             1
--
 
++    Orbital specifications:
      -----------------------
 
      Symmetry species                           1   2   3   4   5   6   7   8
                                                ag b3u b2u b1g b1u b2g b3g  au
      Frozen orbitals                            0   0   0   0   0   0   0   0
      Inactive orbitals                          6   4   5   3   0   0   0   0
      Active orbitals                            0   0   0   0   2   1   2   1
      RAS1 orbitals                              0   0   0   0   0   0   0   0
      RAS2 orbitals                              0   0   0   0   2   1   2   1
      RAS3 orbitals                              0   0   0   0   0   0   0   0
      Secondary orbitals                        70  58  71  59  37  29  37  29
      Deleted orbitals                           0   0   0   0   0   0   0   0
      Number of basis functions                 76  62  76  62  39  30  39  30
--
 
++    CI expansion specifications:
      ----------------------------
 
      Number of CSFs                            52
      Number of determinants                    62
      Number of root(s) required                 6
      Root chosen for geometry opt.              6
      CI roots used                              1     2     3     4     5     6
      weights                                0.167 0.167 0.167 0.167 0.167 0.167
      highest root included in the CI            6
      max. size of the explicit Hamiltonian     52
--
 
++    Optimization specifications:
      ----------------------------
 
      RASSCF algorithm: Conventional
      Maximum number of macro iterations       200
      Maximum number of SX iterations          100
      Threshold for RASSCF energy            0.100E-07
      Threshold for max MO rotation          0.100E+00
      Threshold for max BLB element          0.100E-03
      Level shift parameter                  0.500E+00
      Make Quasi-Newton update
--
 
      The MO-coefficients are taken from the file:
      /work/donglab/kaufold.b/Label-Tutorial/unlabeled-D2h.ScfOrb                                                                                                                                                                                                     
      Title: RKS-DFT orbitals / B3LYP                                                      
 
      Total molecular charge    0.00
 
      ************************************************************************************************************************
      *                                                                                                                      *
      *                                            Wave function control section                                             *
      *                                                                                                                      *
      ************************************************************************************************************************
 
 
                                         RASSCF iterations: Energy and convergence statistics
                                         ----------------------------------------------------
 
      Iter CI   SX   CI       RASSCF       Energy    max ROT     max BLB   max BLB  Level Ln srch  Step   QN   Walltime
          iter iter root      energy       change     param      element    value   shift minimum  type update hh:mm:ss
 Nr of preliminary CI iterations:   1
        1   1   11    0  -230.43697866    0.00E+00  -0.15E-01    3  75 3  0.88E-01*  0.49   0.00    SX    NO    0:00:16
        2   1    6    0  -230.47240485   -0.35E-01*  0.11E-01    6  52 1 -0.15E-01*  0.50   0.00    SX    NO    0:00:06
        3   1    6    0  -230.47515806   -0.28E-02* -0.10E-01    5  20 1 -0.64E-02*  0.50   0.00    SX    NO    0:00:06
        4   1    6    0  -230.47571183   -0.55E-03*  0.11E-01    5  20 1 -0.33E-02*  0.50   0.00    SX    NO    0:00:06
        5   1    6    0  -230.47589206   -0.18E-03* -0.16E-01    1   2 8  0.18E-02*  0.50   2.50    LS   YES    0:00:06
        6   1    6    0  -230.47601390   -0.12E-03* -0.21E-01    2   3 7  0.12E-02*  0.50   1.26    QN   YES    0:00:06
        7   1    6    0  -230.47610588   -0.92E-04*  0.25E+00*   2   3 7  0.14E-02*  0.50   2.50    QN   YES    0:00:06
        8   1    6    0  -230.47728601   -0.12E-02* -0.38E+00*   5  20 1  0.61E-02*  0.47   2.50    QN   YES    0:00:06
        9   1    6    0  -230.47775292   -0.47E-03*  0.13E+00*   2   8 5  0.15E-01*  0.43   0.67    QN   YES    0:00:06
       10   1    6    0  -230.47814266   -0.39E-03*  0.69E-02    5  13 1 -0.12E-01*  0.44   1.04    QN   YES    0:00:07
       11   1    6    0  -230.47827900   -0.14E-03* -0.57E-01    5  13 1 -0.11E-01*  0.44   2.50    QN   YES    0:00:06
       12   1    6    0  -230.47887437   -0.60E-03*  0.67E-01    3  11 2  0.11E-01*  0.43   1.82    QN   YES    0:00:06
       13   1    6    0  -230.47950991   -0.64E-03*  0.10E+00    6  16 1 -0.13E-01*  0.42   2.15    QN   YES    0:00:07
       14   1    7    0  -230.48064357   -0.11E-02*  0.13E+00*   1   2 8 -0.14E-01*  0.41   2.13    QN   YES    0:00:06
       15   1    7    0  -230.48253784   -0.19E-02*  0.14E+00*   1   2 8 -0.14E-01*  0.38   1.97    QN   YES    0:00:06
       16   1    7    0  -230.48521814   -0.27E-02*  0.93E-01    1   2 8 -0.12E-01*  0.36   1.82    QN   YES    0:00:06
       17   1    6    0  -230.48822046   -0.30E-02* -0.73E-01    2   4 5 -0.10E-01*  0.34   1.81    QN   YES    0:00:06
       18   1    6    0  -230.49050612   -0.23E-02* -0.59E-01    2   4 5 -0.67E-02*  0.33   1.66    QN   YES    0:00:06
       19   1    6    0  -230.49135192   -0.85E-03* -0.85E-01    2   4 5 -0.29E-02*  0.34   1.18    QN   YES    0:00:06
       20   1    6    0  -230.49149934   -0.15E-03*  0.32E-01    5  13 1 -0.21E-02*  0.34   0.69    QN   YES    0:00:06
       21   1    5    0  -230.49160355   -0.10E-03* -0.13E-01    1   7 8 -0.11E-02*  0.34   1.43    QN   YES    0:00:06
       22   1    5    0  -230.49163390   -0.30E-04*  0.34E-02    2   3 5  0.66E-03*  0.34   1.50    QN   YES    0:00:06
       23   1    5    0  -230.49164336   -0.95E-05* -0.27E-02    2   3 5  0.41E-03*  0.34   1.33    QN   YES    0:00:06
       24   1    5    0  -230.49164531   -0.20E-05* -0.16E-02    2   3 5  0.24E-03*  0.34   1.48    QN   YES    0:00:06
       25   1    5    0  -230.49164605   -0.75E-06* -0.11E-02    2   3 5  0.12E-03*  0.34   1.54    QN   YES    0:00:06
       26   1    4    0  -230.49164636   -0.31E-06*  0.87E-03    1   3 5  0.39E-04   0.34   1.40    QN   YES    0:00:06
       27   1    4    0  -230.49164643   -0.72E-07*  0.33E-03    5  13 1  0.18E-04   0.34   1.26    QN   YES    0:00:06
       28   1    3    0  -230.49164644   -0.87E-08  -0.41E-04    4  10 2  0.67E-05   0.34   1.24    QN   YES    0:00:06
      Convergence after 28 iterations
       29   1    3    0  -230.49164644   -0.10E-08  -0.41E-04    2   5 5 -0.26E-05   0.34   1.24    QN   YES    0:00:07
 
      ************************************************************************************************************************
                                                      Wave function printout:
                       occupation of active orbitals, and spin coupling of open shells (u,d: Spin up or down)
      ************************************************************************************************************************
 
      Note: transformation to natural orbitals
      has been made, which may change the order of the CSFs.
 
      printout of CI-coefficients larger than  0.05 for root  1
      energy=    -230.841064
      conf/sym  55 6 77 8     Coeff  Weight
             1  22 2 00 0   0.13845 0.01917
             6  20 2 20 0  -0.94638 0.89564
            11  ud 2 ud 0  -0.07630 0.00582
            18  2u d u0 d   0.17213 0.02963
            22  uu 2 dd 0   0.06930 0.00480
            28  20 0 20 2   0.14135 0.01998
            43  u0 d 2u d   0.10238 0.01048
 
      printout of CI-coefficients larger than  0.05 for root  2
      energy=    -230.545855
      conf/sym  55 6 77 8     Coeff  Weight
             1  22 2 00 0   0.44561 0.19857
             2  22 0 20 0  -0.20052 0.04021
             3  22 0 ud 0   0.08672 0.00752
             7  20 2 ud 0  -0.37743 0.14246
             8  20 2 02 0  -0.08966 0.00804
             9  20 2 00 2  -0.14168 0.02007
            10  ud 2 20 0  -0.57235 0.32758
            13  ud 2 00 2   0.10011 0.01002
            14  02 2 20 0  -0.11314 0.01280
            18  2u d u0 d  -0.17230 0.02969
            19  2u d 0u d  -0.11748 0.01380
            20  u2 d u0 d  -0.12261 0.01503
            22  uu 2 dd 0  -0.11085 0.01229
            23  2u u d0 d  -0.29709 0.08826
            27  20 0 22 0   0.09411 0.00886
            28  20 0 20 2  -0.10896 0.01187
            40  00 2 20 2   0.11724 0.01374
            43  u0 d 2u d   0.06945 0.00482
            44  u0 d u2 d   0.05245 0.00275
            45  0u d 2u d   0.07040 0.00496
            48  u0 u 2d d  -0.10280 0.01057
 
      printout of CI-coefficients larger than  0.05 for root  3
      energy=    -230.425214
      conf/sym  55 6 77 8     Coeff  Weight
             1  22 2 00 0  -0.48499 0.23522
             2  22 0 20 0   0.11231 0.01261
             5  22 0 00 2   0.13593 0.01848
             6  20 2 20 0  -0.24193 0.05853
             9  20 2 00 2   0.09599 0.00921
            11  ud 2 ud 0   0.16978 0.02883
            14  02 2 20 0   0.08523 0.00726
            18  2u d u0 d  -0.33511 0.11230
            21  u2 d 0u d  -0.08490 0.00721
            22  uu 2 dd 0  -0.07057 0.00498
            23  2u u d0 d  -0.47376 0.22445
            27  20 0 22 0   0.05608 0.00315
            28  20 0 20 2  -0.46430 0.21558
            33  ud 0 ud 2  -0.07256 0.00526
            39  00 2 22 0  -0.07532 0.00567
            40  00 2 20 2   0.08555 0.00732
            43  u0 d 2u d  -0.13540 0.01833
            47  uu 0 dd 2   0.05513 0.00304
            48  u0 u 2d d  -0.11364 0.01291
 
      printout of CI-coefficients larger than  0.05 for root  4
      energy=    -230.406934
      conf/sym  55 6 77 8     Coeff  Weight
             1  22 2 00 0  -0.16726 0.02798
             2  22 0 20 0  -0.39808 0.15847
             3  22 0 ud 0   0.12551 0.01575
             5  22 0 00 2   0.15006 0.02252
             8  20 2 02 0   0.14105 0.01989
             9  20 2 00 2  -0.37962 0.14411
            11  ud 2 ud 0   0.08516 0.00725
            13  ud 2 00 2   0.15675 0.02457
            14  02 2 20 0   0.21795 0.04750
            15  02 2 ud 0  -0.05071 0.00257
            18  2u d u0 d   0.51458 0.26479
            19  2u d 0u d   0.08443 0.00713
            20  u2 d u0 d   0.11056 0.01222
            22  uu 2 dd 0   0.09443 0.00892
            24  2u u 0d d   0.15042 0.02263
            25  u2 u d0 d   0.19324 0.03734
            27  20 0 22 0   0.13798 0.01904
            28  20 0 20 2  -0.16054 0.02577
            29  20 0 ud 2  -0.12526 0.01569
            32  ud 0 20 2  -0.15560 0.02421
            39  00 2 22 0  -0.10106 0.01021
            40  00 2 20 2   0.21156 0.04476
            48  u0 u 2d d  -0.12067 0.01456
            50  0u u 2d d  -0.05605 0.00314
 
      printout of CI-coefficients larger than  0.05 for root  5
      energy=    -230.389567
      conf/sym  55 6 77 8     Coeff  Weight
             1  22 2 00 0  -0.13225 0.01749
             2  22 0 20 0  -0.26135 0.06830
             7  20 2 ud 0   0.62109 0.38575
             9  20 2 00 2   0.32374 0.10481
            10  ud 2 20 0  -0.60537 0.36648
            12  ud 2 02 0   0.06220 0.00387
            14  02 2 20 0   0.06842 0.00468
            15  02 2 ud 0  -0.07356 0.00541
            20  u2 d u0 d   0.08290 0.00687
            28  20 0 20 2   0.07335 0.00538
            29  20 0 ud 2  -0.05825 0.00339
            32  ud 0 20 2   0.08564 0.00733
            40  00 2 20 2  -0.07087 0.00502
            44  u0 d u2 d  -0.05349 0.00286
 
      printout of CI-coefficients larger than  0.05 for root  6
      energy=    -230.341245
      conf/sym  55 6 77 8     Coeff  Weight
             1  22 2 00 0  -0.42428 0.18001
             2  22 0 20 0  -0.08813 0.00777
             7  20 2 ud 0  -0.25426 0.06465
             9  20 2 00 2  -0.20624 0.04253
            10  ud 2 20 0  -0.12172 0.01482
            11  ud 2 ud 0   0.12037 0.01449
            14  02 2 20 0   0.09601 0.00922
            18  2u d u0 d  -0.13557 0.01838
            22  uu 2 dd 0  -0.09484 0.00900
            23  2u u d0 d  -0.23994 0.05757
            27  20 0 22 0  -0.05859 0.00343
            28  20 0 20 2   0.72286 0.52253
            40  00 2 20 2  -0.10180 0.01036
            43  u0 d 2u d   0.14529 0.02111
            48  u0 u 2d d   0.07213 0.00520
 
      Natural orbitals and occupation numbers for root  1
      sym 5:   1.966935   0.090557
      sym 6:   1.907368
      sym 7:   1.910260   0.031587
      sym 8:   0.093293
 
      Natural orbitals and occupation numbers for root  2
      sym 5:   1.559685   1.027855
      sym 6:   1.674155
      sym 7:   1.192669   0.244852
      sym 8:   0.300784
 
      Natural orbitals and occupation numbers for root  3
      sym 5:   1.868855   0.948348
      sym 6:   1.101658
      sym 7:   1.067484   0.113987
      sym 8:   0.899669
 
      Natural orbitals and occupation numbers for root  4
      sym 5:   1.634562   1.023697
      sym 6:   1.059741
      sym 7:   1.082211   0.217326
      sym 8:   0.982462
 
      Natural orbitals and occupation numbers for root  5
      sym 5:   1.575086   0.593184
      sym 6:   1.806380
      sym 7:   1.332482   0.423201
      sym 8:   0.269667
 
      Natural orbitals and occupation numbers for root  6
      sym 5:   1.880841   0.524553
      sym 6:   0.808720
      sym 7:   1.372515   0.136809
      sym 8:   1.276563
 
      ************************************************************************************************************************
      *                                                                                                                      *
      *                                                    Final results                                                     *
      *                                                                                                                      *
      ************************************************************************************************************************
 
 
++    Wave function specifications:
      -----------------------------
 
      Number of closed shell electrons          36
      Number of electrons in active shells       6
      Max number of holes in RAS1 space          0
      Max nr of electrons in RAS3 space          0
      Number of inactive orbitals               18
      Number of active orbitals                  6
      Number of secondary orbitals             390
      Spin quantum number                      0.0
      State symmetry                             1
--
 
++    Orbital specifications:
      -----------------------
 
      Symmetry species                           1   2   3   4   5   6   7   8
                                                ag b3u b2u b1g b1u b2g b3g  au
      Frozen orbitals                            0   0   0   0   0   0   0   0
      Inactive orbitals                          6   4   5   3   0   0   0   0
      Active orbitals                            0   0   0   0   2   1   2   1
      RAS1 orbitals                              0   0   0   0   0   0   0   0
      RAS2 orbitals                              0   0   0   0   2   1   2   1
      RAS3 orbitals                              0   0   0   0   0   0   0   0
      Secondary orbitals                        70  58  71  59  37  29  37  29
      Deleted orbitals                           0   0   0   0   0   0   0   0
      Number of basis functions                 76  62  76  62  39  30  39  30
--
 
++    CI expansion specifications:
      ----------------------------
 
      Number of CSFs                            52
      Number of determinants                    62
      Number of root(s) required                 6
      CI roots used                              1     2     3     4     5     6
      weights                                0.167 0.167 0.167 0.167 0.167 0.167
      highest root included in the CI            6
      Root passed to geometry opt.               6
--
 
++    Final optimization conditions:
      ------------------------------
 
      Average CI energy                            -230.49164644
      RASSCF energy for state  6                   -230.34124489
      Super-CI energy                                -0.00000000
      RASSCF energy change                           -0.00000000
      Max change in MO coefficients               0.223E-03
      Max non-diagonal density matrix element    -0.408E-04
      Maximum BLB matrix element                 -0.258E-05
      (orbital pair   2,   5 in symmetry   5)
      Norm of electronic gradient            0.628E-01
--
 
 
      Final state energy(ies):
      ------------------------
 
::    RASSCF root number  1 Total energy:   -230.84106376
::    RASSCF root number  2 Total energy:   -230.54585500
::    RASSCF root number  3 Total energy:   -230.42521386
::    RASSCF root number  4 Total energy:   -230.40693366
::    RASSCF root number  5 Total energy:   -230.38956748
::    RASSCF root number  6 Total energy:   -230.34124489
 
++    Molecular orbitals:
      -------------------
 
      Pseudonatural active orbitals and approximate occupation numbers
 
 
      MOLECULAR ORBITALS FOR SYMMETRY SPECIES 1: ag 
 
      INDEX  ENERGY  OCCUPATION COEFFICIENTS ...
          1  -11.2336    2.0000                                                                                                           
                28 C3     1s     ( 0.9702)  47 C4     1s     ( 0.2447)
          2  -11.2302    2.0000                                                                                                           
                28 C3     1s     (-0.2435)  47 C4     1s     ( 0.9703)
          3   -1.1562    2.0000                                                                                                           
                 1 H1     1s     ( 0.1205)  12 H2     1s     ( 0.1693)  29 C3     2s     ( 0.5189)  31 C3     *s     (-0.1111)
                33 C3     2py    (-0.1399)  48 C4     2s     ( 0.7301)  50 C4     *s     (-0.1587)  52 C4     2px    (-0.1715)
      
          4   -0.8275    2.0000                                                                                                           
                 1 H1     1s     (-0.3963)   2 H1     *s     ( 0.1055)   3 H1     *s     ( 0.1887)  12 H2     1s     ( 0.2789)
                14 H2     *s     (-0.1326)  29 C3     2s     (-0.5949)  32 C3     *s     (-0.1356)  33 C3     2py    (-0.1270)
                48 C4     2s     ( 0.4222)  52 C4     2px    ( 0.3506)  56 C4     2py    (-0.4342)  58 C4     *py    ( 0.1291)
      
          5   -0.7136    2.0000                                                                                                           
                 1 H1     1s     ( 0.3994)   3 H1     *s     (-0.1675)  12 H2     1s     ( 0.5647)  13 H2     *s     (-0.1334)
                14 H2     *s     (-0.2317)  33 C3     2py    ( 0.4163)  50 C4     *s     ( 0.1064)  52 C4     2px    ( 0.5084)
                56 C4     2py    ( 0.2903)
          6   -0.4963    2.0000                                                                                                           
                 1 H1     1s     (-0.5836)   2 H1     *s     ( 0.1371)   3 H1     *s     ( 0.2405)  12 H2     1s     ( 0.4143)
                14 H2     *s     (-0.1704)  31 C3     *s     (-0.2802)  32 C3     *s     (-0.1307)  33 C3     2py    (-0.4864)
                50 C4     *s     ( 0.1984)  56 C4     2py    ( 0.7628)
          7    0.0298    0.0000                                                                                                           
                 2 H1     *s     (-0.3357)   3 H1     *s     (-2.1759)   4 H1     *s     (-1.3402)   6 H1     *py    ( 0.1158)
                 7 H1     *py    ( 0.4037)  13 H2     *s     (-0.4750)  14 H2     *s     (-3.0767)  15 H2     *s     (-1.9061)
                17 H2     *px    ( 0.1419)  18 H2     *px    ( 0.4941)  21 H2     *py    ( 0.2863)  31 C3     *s     ( 1.1822)
                32 C3     *s     ( 2.0815)  34 C3     *py    ( 0.1053)  35 C3     *py    ( 0.8834)  36 C3     *py    ( 0.4850)
                39 C3     *d0    (-0.1826)  42 C3     *d2+   (-0.1925)  50 C4     *s     ( 1.6812)  51 C4     *s     ( 2.9066)
                53 C4     *px    ( 0.1288)  54 C4     *px    ( 1.0783)  55 C4     *px    ( 0.6029)  58 C4     *py    ( 0.6230)
                59 C4     *py    ( 0.3438)  61 C4     *d2-   ( 0.1024)  62 C4     *d2-   ( 0.2362)  65 C4     *d0    (-0.2566)
                68 C4     *d2+   ( 0.1393)
          8    0.0486    0.0000                                                                                                           
                 2 H1     *s     ( 0.3854)   3 H1     *s     ( 5.1995)   4 H1     *s     (*******)   6 H1     *py    (-0.1576)
                 7 H1     *py    (-1.3098)  13 H2     *s     (-0.2727)  14 H2     *s     (-3.6769)  15 H2     *s     ( 8.1813)
                17 H2     *px    ( 0.1193)  18 H2     *px    ( 0.9293)  21 H2     *py    ( 0.2432)  31 C3     *s     (-1.3061)
                32 C3     *s     (*******)  34 C3     *py    (-0.1116)  35 C3     *py    (-0.4311)  36 C3     *py    (11.5053)
                39 C3     *d0    ( 0.3035)  41 C3     *d2+   ( 0.1792)  42 C3     *d2+   ( 1.6245)  50 C4     *s     ( 0.9254)
                51 C4     *s     (17.3599)  54 C4     *px    ( 0.8897)  55 C4     *px    (-7.5063)  57 C4     *py    ( 0.1215)
                58 C4     *py    (-0.9304)  59 C4     *py    (-3.2702)  61 C4     *d2-   ( 0.1250)  62 C4     *d2-   ( 1.0275)
                65 C4     *d0    (-0.2143)  68 C4     *d2+   ( 0.5188)
          9    0.1148    0.0000                                                                                                           
                 2 H1     *s     (-0.2160)   3 H1     *s     (-1.2116)   4 H1     *s     (-0.8331)   7 H1     *py    ( 0.1222)
                13 H2     *s     (-0.3016)  14 H2     *s     (-1.6708)  15 H2     *s     (-1.2017)  18 H2     *px    ( 0.1415)
                31 C3     *s     ( 1.7409)  32 C3     *s     ( 1.1145)  35 C3     *py    ( 0.8848)  36 C3     *py    ( 1.4355)
                39 C3     *d0    ( 0.2448)  42 C3     *d2+   (-0.6607)  50 C4     *s     ( 2.4407)  51 C4     *s     ( 1.5204)
                52 C4     2px    (-0.1028)  54 C4     *px    ( 1.0797)  55 C4     *px    ( 1.7900)  58 C4     *py    ( 0.6279)
                59 C4     *py    ( 1.0386)  62 C4     *d2-   ( 0.7971)  65 C4     *d0    ( 0.3460)  68 C4     *d2+   ( 0.4548)
      
         10    0.1294    0.0000                                                                                                           
                 2 H1     *s     ( 0.8177)   3 H1     *s     ( 5.1058)   4 H1     *s     (*******)   6 H1     *py    (-0.1780)
                 7 H1     *py    (-1.1921)  13 H2     *s     (-0.5896)  14 H2     *s     (-3.6860)  15 H2     *s     (10.5751)
                17 H2     *px    ( 0.1317)  18 H2     *px    ( 1.6437)  21 H2     *py    (-1.1304)  29 C3     2s     (-0.1051)
                31 C3     *s     (-0.5253)  32 C3     *s     (*******)  35 C3     *py    (-3.2842)  36 C3     *py    (18.1428)
                38 C3     *d0    ( 0.1229)  39 C3     *d0    ( 1.5104)  41 C3     *d2+   ( 0.1480)  42 C3     *d2+   (-1.0771)
                44 C3     *f3-   ( 0.2411)  50 C4     *s     ( 0.4132)  51 C4     *s     (46.6086)  54 C4     *px    ( 2.0299)
                55 C4     *px    (*******)  57 C4     *py    ( 0.2514)  58 C4     *py    ( 1.1891)  59 C4     *py    ( 1.4296)
                61 C4     *d2-   ( 0.1063)  62 C4     *d2-   ( 1.0261)  65 C4     *d0    (-1.0740)  68 C4     *d2+   (-3.2861)
                70 C4     *f3-   ( 0.1715)
         11    0.1356    0.0000                                                                                                           
                 2 H1     *s     (-0.8637)   3 H1     *s     (-5.8535)   4 H1     *s     (-1.7360)   6 H1     *py    ( 0.3256)
                 7 H1     *py    ( 1.1574)  13 H2     *s     (-1.2106)  14 H2     *s     (-8.2443)  15 H2     *s     (-2.6487)
                17 H2     *px    ( 0.3972)  18 H2     *px    ( 1.4036)  20 H2     *py    ( 0.2292)  21 H2     *py    ( 0.8280)
                29 C3     2s     (-0.1837)  31 C3     *s     ( 2.9737)  32 C3     *s     ( 5.0216)  33 C3     2py    (-0.1022)
                34 C3     *py    ( 0.2793)  35 C3     *py    ( 2.3295)  36 C3     *py    ( 0.8666)  38 C3     *d0    (-0.1259)
                39 C3     *d0    (-0.5217)  41 C3     *d2+   (-0.2441)  42 C3     *d2+   (-0.4803)  48 C4     2s     (-0.2608)
                50 C4     *s     ( 4.2245)  51 C4     *s     ( 6.1332)  52 C4     2px    (-0.1251)  53 C4     *px    ( 0.3424)
                54 C4     *px    ( 2.8055)  55 C4     *px    ( 1.2992)  57 C4     *py    ( 0.1955)  58 C4     *py    ( 1.6135)
                59 C4     *py    ( 0.6705)  61 C4     *d2-   ( 0.2978)  62 C4     *d2-   ( 0.6061)  64 C4     *d0    (-0.1766)
                65 C4     *d0    (-0.7125)  67 C4     *d2+   ( 0.1723)  68 C4     *d2+   ( 0.3878)  70 C4     *f3-   ( 0.1129)
      
 
      MOLECULAR ORBITALS FOR SYMMETRY SPECIES 2: b3u
 
      INDEX  ENERGY  OCCUPATION COEFFICIENTS ...
          1  -11.2304    2.0000                                                                                                           
                33 C4     1s     ( 1.0011)
          2   -1.0167    2.0000                                                                                                           
                 6 H2     1s     ( 0.3258)   7 H2     *s     (-0.1679)   8 H2     *s     (-0.2639)  22 C3     2px    ( 0.2499)
                34 C4     2s     ( 0.9050)  36 C4     *s     (-0.1748)  40 C4     *px    ( 0.1094)  42 C4     2py    (-0.1942)
      
          3   -0.6240    2.0000                                                                                                           
                22 C3     2px    ( 0.6015)  24 C3     *px    (-0.1030)  38 C4     2px    (-0.4279)  42 C4     2py    ( 0.7291)
                44 C4     *py    (-0.1285)
          4   -0.5909    2.0000                                                                                                           
                 6 H2     1s     ( 0.7220)   7 H2     *s     (-0.1296)   8 H2     *s     (-0.2455)  22 C3     2px    (-0.1790)
                24 C3     *px    (-0.1008)  34 C4     2s     (-0.1383)  36 C4     *s     ( 0.2660)  38 C4     2px    ( 0.6048)
                42 C4     2py    ( 0.5078)
          5    0.0352    0.0000                                                                                                           
                 3 H1     *px    ( 0.2384)   8 H2     *s     (-0.8325)   9 H2     *s     ( 6.0324)  12 H2     *px    ( 0.3072)
                24 C3     *px    (-1.0046)  25 C3     *px    (-5.0690)  28 C3     *d2-   (-0.1101)  36 C4     *s     ( 0.7229)
                37 C4     *s     (11.6213)  40 C4     *px    (-0.5588)  41 C4     *px    (-4.5041)  44 C4     *py    ( 0.4977)
                45 C4     *py    ( 1.5397)  51 C4     *d0    (-0.3757)  54 C4     *d2+   (-0.1305)
          6    0.1181    0.0000                                                                                                           
                 3 H1     *px    ( 1.4027)   7 H2     *s     (-0.6355)   8 H2     *s     (-9.2883)   9 H2     *s     ( 8.8867)
                11 H2     *px    ( 0.1402)  12 H2     *px    ( 1.5654)  15 H2     *py    (-0.2424)  24 C3     *px    ( 0.8220)
                25 C3     *px    (*******)  28 C3     *d2-   (-2.6413)  32 C3     *f3+   ( 0.1282)  36 C4     *s     (-3.4046)
                37 C4     *s     (51.9263)  38 C4     2px    ( 0.1241)  40 C4     *px    ( 3.4218)  41 C4     *px    (-9.1900)
                44 C4     *py    ( 1.3019)  45 C4     *py    (12.7106)  47 C4     *d2-   ( 0.1652)  48 C4     *d2-   ( 1.4962)
                50 C4     *d0    (-0.1090)  51 C4     *d0    (-1.9435)  53 C4     *d2+   ( 0.1461)  54 C4     *d2+   (-1.2929)
      
          7    0.1244    0.0000                                                                                                           
                 2 H1     *px    (-0.1024)   3 H1     *px    (-0.3659)  12 H2     *px    ( 0.2641)  14 H2     *py    (-0.1253)
                15 H2     *py    (-0.4544)  21 H2     *d2+   (-0.1207)  24 C3     *px    ( 0.6108)  25 C3     *px    ( 2.6134)
                28 C3     *d2-   (-0.2652)  32 C3     *f3+   (-0.1141)  37 C4     *s     ( 0.1129)  40 C4     *px    (-0.4136)
                41 C4     *px    (-1.8899)  44 C4     *py    ( 0.7422)  45 C4     *py    ( 3.3063)  48 C4     *d2-   (-0.1765)
                54 C4     *d2+   ( 0.3051)  62 C4     *f3+   (-0.1613)
          8    0.1427    0.0000                                                                                                           
                 3 H1     *px    ( 1.5420)   8 H2     *s     (-7.0523)   9 H2     *s     (-3.7969)  12 H2     *px    ( 0.6097)
                15 H2     *py    (-0.9061)  17 H2     *d2-   ( 0.1283)  23 C3     *px    ( 0.1709)  24 C3     *px    ( 4.2236)
                25 C3     *px    (*******)  27 C3     *d2-   (-0.2084)  28 C3     *d2-   (-3.8547)  32 C3     *f3+   (-0.1355)
                36 C4     *s     (*******)  37 C4     *s     (24.9392)  38 C4     2px    (-0.1416)  40 C4     *px    ( 6.2387)
                41 C4     *px    ( 5.6572)  43 C4     *py    (-0.1320)  44 C4     *py    ( 0.1503)  45 C4     *py    (14.6596)
                48 C4     *d2-   ( 2.0374)  51 C4     *d0    (-1.0515)  53 C4     *d2+   (-0.1332)  54 C4     *d2+   (-1.9714)
      
 
      MOLECULAR ORBITALS FOR SYMMETRY SPECIES 3: b2u
 
      INDEX  ENERGY  OCCUPATION COEFFICIENTS ...
          1  -11.2336    2.0000                                                                                                           
                28 C3     1s     ( 0.9834)  47 C4     1s     ( 0.1874)
          2  -11.2291    2.0000                                                                                                           
                28 C3     1s     (-0.1875)  47 C4     1s     ( 0.9834)
          3   -1.0176    2.0000                                                                                                           
                 1 H1     1s     ( 0.2662)   2 H1     *s     (-0.1377)   3 H1     *s     (-0.2151)  12 H2     1s     ( 0.1872)
                14 H2     *s     (-0.1546)  29 C3     2s     ( 0.7405)  31 C3     *s     (-0.1415)  48 C4     2s     ( 0.5215)
                50 C4     *s     (-0.1032)  52 C4     2px    (-0.1957)  56 C4     2py    ( 0.2383)
          4   -0.6425    2.0000                                                                                                           
                 1 H1     1s     (-0.4939)   2 H1     *s     ( 0.1251)   3 H1     *s     ( 0.2462)  12 H2     1s     ( 0.6882)
                13 H2     *s     (-0.1744)  14 H2     *s     (-0.3442)  29 C3     2s     (-0.3445)  31 C3     *s     (-0.3488)
                32 C3     *s     (-0.3603)  33 C3     2py    (-0.2845)  35 C3     *py    ( 0.1035)  48 C4     2s     ( 0.4906)
                50 C4     *s     ( 0.4829)  51 C4     *s     ( 0.5111)  52 C4     2px    ( 0.3353)  54 C4     *px    (-0.1259)
                56 C4     2py    ( 0.1969)
          5   -0.5919    2.0000                                                                                                           
                 1 H1     1s     ( 0.5847)   2 H1     *s     (-0.1051)   3 H1     *s     (-0.2004)  12 H2     1s     ( 0.4231)
                14 H2     *s     (-0.1418)  29 C3     2s     (-0.1161)  31 C3     *s     ( 0.2167)  33 C3     2py    ( 0.6340)
                50 C4     *s     ( 0.1592)  52 C4     2px    ( 0.5039)  58 C4     *py    (-0.1276)
          6    0.0352    0.0000                                                                                                           
                 3 H1     *s     (-0.6794)   4 H1     *s     ( 4.9145)   7 H1     *py    ( 0.2103)  14 H2     *s     (-0.4707)
                15 H2     *s     ( 3.4947)  21 H2     *py    ( 0.3266)  31 C3     *s     ( 0.5875)  32 C3     *s     ( 9.4435)
                35 C3     *py    (-0.1949)  36 C3     *py    (-2.5468)  39 C3     *d0    (-0.3062)  42 C3     *d2+   ( 0.1025)
                50 C4     *s     ( 0.4214)  51 C4     *s     ( 6.7467)  54 C4     *px    ( 0.5007)  55 C4     *px    ( 1.5228)
                58 C4     *py    (-1.1367)  59 C4     *py    (-6.2788)  62 C4     *d2-   (-0.1363)  65 C4     *d0    (-0.2170)
      
          7    0.0649    0.0000                                                                                                           
                 2 H1     *s     ( 0.6163)   3 H1     *s     (11.6185)   4 H1     *s     (*******)   6 H1     *py    (-0.1161)
                 7 H1     *py    (-2.2732)  13 H2     *s     (-0.8726)  14 H2     *s     (*******)  15 H2     *s     (25.7223)
                17 H2     *px    ( 0.1423)  18 H2     *px    ( 2.7858)  21 H2     *py    ( 1.6075)  31 C3     *s     (-2.2252)
                32 C3     *s     (*******)  35 C3     *py    (-3.1229)  36 C3     *py    (21.4157)  39 C3     *d0    ( 0.7865)
                42 C3     *d2+   ( 2.5789)  44 C3     *f3-   ( 0.1452)  50 C4     *s     ( 3.1491)  51 C4     *s     (97.4315)
                54 C4     *px    ( 3.8283)  55 C4     *px    (*******)  58 C4     *py    ( 2.2115)  59 C4     *py    (*******)
                62 C4     *d2-   ( 3.1612)  65 C4     *d0    (-1.1121)  68 C4     *d2+   ( 1.8261)  70 C4     *f3-   ( 0.2055)
                74 C4     *f1+   (-0.1051)
          8    0.1180    0.0000                                                                                                           
                 2 H1     *s     (-0.5181)   3 H1     *s     (-7.6096)   4 H1     *s     ( 7.2706)   6 H1     *py    ( 0.1045)
                 7 H1     *py    ( 1.0127)  13 H2     *s     (-0.3654)  14 H2     *s     (-5.2990)  15 H2     *s     ( 5.1184)
                18 H2     *px    (-0.2498)  20 H2     *py    ( 0.1237)  21 H2     *py    ( 1.8367)  31 C3     *s     (-2.7805)
                32 C3     *s     (42.4064)  33 C3     2py    ( 0.1130)  35 C3     *py    ( 2.9465)  36 C3     *py    (-1.3356)
                39 C3     *d0    (-1.5887)  41 C3     *d2+   (-0.1759)  42 C3     *d2+   (-0.5427)  50 C4     *s     (-1.9622)
                51 C4     *s     (29.8998)  54 C4     *px    ( 1.3019)  55 C4     *px    (12.7119)  58 C4     *py    ( 1.9042)
                59 C4     *py    (*******)  61 C4     *d2-   ( 0.1455)  62 C4     *d2-   (-1.3134)  65 C4     *d0    (-1.1192)
                68 C4     *d2+   ( 2.9757)  76 C4     *f3+   ( 0.1564)
          9    0.1427    0.0000                                                                                                           
                 3 H1     *s     (-5.7842)   4 H1     *s     (-3.0595)  11 H1     *d2+   (-0.1222)  14 H2     *s     (-4.0366)
                15 H2     *s     (-2.2284)  18 H2     *px    (-0.9151)  21 H2     *py    ( 1.6573)  31 C3     *s     (-8.2151)
                32 C3     *s     (20.6076)  33 C3     2py    (-0.1315)  35 C3     *py    ( 4.4865)  36 C3     *py    ( 9.9283)
                39 C3     *d0    (-0.8651)  42 C3     *d2+   (-0.6319)  50 C4     *s     (-5.8232)  51 C4     *s     (14.1861)
                53 C4     *px    (-0.1319)  54 C4     *px    ( 0.1451)  55 C4     *px    (14.7464)  57 C4     *py    ( 0.1657)
                58 C4     *py    ( 6.0467)  59 C4     *py    (*******)  61 C4     *d2-   (-0.1343)  62 C4     *d2-   (-1.9865)
                65 C4     *d0    (-0.6077)  67 C4     *d2+   ( 0.2173)  68 C4     *d2+   ( 4.3200)  76 C4     *f3+   (-0.1668)
      
 
      MOLECULAR ORBITALS FOR SYMMETRY SPECIES 4: b1g
 
      INDEX  ENERGY  OCCUPATION COEFFICIENTS ...
          1  -11.2292    2.0000                                                                                                           
                33 C4     1s     ( 0.9999)
          2   -0.8275    2.0000                                                                                                           
                 6 H2     1s     ( 0.4826)   7 H2     *s     (-0.1278)   8 H2     *s     (-0.2276)  22 C3     2px    ( 0.4533)
                24 C3     *px    (-0.1237)  34 C4     2s     ( 0.7281)  36 C4     *s     ( 0.1123)  37 C4     *s     ( 0.1627)
                42 C4     2py    ( 0.3530)
          3   -0.4965    2.0000                                                                                                           
                 6 H2     1s     ( 0.7175)   7 H2     *s     (-0.1681)   8 H2     *s     (-0.2962)  22 C3     2px    (-0.5563)
                36 C4     *s     ( 0.3431)  37 C4     *s     ( 0.1585)  38 C4     2px    ( 0.7115)
          4    0.0486    0.0000                                                                                                           
                 3 H1     *px    ( 0.2093)   7 H2     *s     (-0.4716)   8 H2     *s     (-6.3662)   9 H2     *s     (14.1737)
                11 H2     *px    ( 0.1540)  12 H2     *px    ( 1.3163)  14 H2     *py    ( 0.1191)  15 H2     *py    ( 0.9275)
                24 C3     *px    ( 1.0320)  25 C3     *px    (-0.7716)  36 C4     *s     ( 1.5955)  37 C4     *s     (30.0586)
                39 C4     *px    ( 0.1457)  40 C4     *px    ( 0.1035)  41 C4     *px    (*******)  44 C4     *py    ( 0.8754)
                45 C4     *py    (-7.4805)  47 C4     *d2-   ( 0.1810)  48 C4     *d2-   ( 1.7076)  51 C4     *d0    (-0.3715)
                53 C4     *d2+   ( 0.1255)  54 C4     *d2+   ( 1.0224)  56 C4     *f3-   ( 0.1026)
          5    0.1294    0.0000                                                                                                           
                 3 H1     *px    ( 1.4682)   7 H2     *s     (-1.0084)   8 H2     *s     (-6.3065)   9 H2     *s     (18.3504)
                11 H2     *px    ( 0.1799)  12 H2     *px    ( 0.7526)  14 H2     *py    ( 0.1288)  15 H2     *py    ( 1.6357)
                23 C3     *px    (-0.2099)  25 C3     *px    (-7.3236)  28 C3     *d2-   (-2.7394)  34 C4     2s     ( 0.1271)
                36 C4     *s     ( 0.6672)  37 C4     *s     (80.6916)  39 C4     *px    ( 0.1574)  40 C4     *px    ( 3.5045)
                41 C4     *px    (*******)  44 C4     *py    ( 2.0184)  45 C4     *py    (*******)  47 C4     *d2-   ( 0.1508)
                48 C4     *d2-   (-2.1086)  50 C4     *d0    (-0.1515)  51 C4     *d0    (-1.8540)  53 C4     *d2+   ( 0.1042)
                54 C4     *d2+   ( 1.0276)  56 C4     *f3-   ( 0.2964)
 
      MOLECULAR ORBITALS FOR SYMMETRY SPECIES 5: b1u
 
      INDEX  ENERGY  OCCUPATION COEFFICIENTS ...
          1    0.0000    1.7428                                                                                                           
                13 C3     2pz    ( 0.4472)  24 C4     2pz    ( 0.6430)
          2    0.0000    0.7062                                                                                                           
                13 C3     2pz    (-0.7409)  15 C3     *pz    (-0.1945)  16 C3     *pz    (-0.3321)  24 C4     2pz    ( 0.5367)
                26 C4     *pz    ( 0.1319)  27 C4     *pz    ( 0.2268)
          3    0.0972    0.0000                                                                                                           
                 3 H1     *pz    (-0.1882)   8 H2     *pz    (-0.2673)  13 C3     2pz    (-0.1275)  16 C3     *pz    ( 0.3272)
                24 C4     2pz    (-0.1619)  27 C4     *pz    ( 0.5763)  33 C4     *d1+   ( 0.1106)
          4    0.1440    0.0000                                                                                                           
                 2 H1     *pz    ( 0.1160)   3 H1     *pz    ( 0.1752)   5 H1     *d1-   (-0.1019)   8 H2     *pz    (-0.1182)
                13 C3     2pz    ( 0.1610)  15 C3     *pz    (-1.7049)  16 C3     *pz    (-6.2437)  19 C3     *d1-   ( 0.8634)
                21 C3     *f0    ( 0.1026)  24 C4     2pz    (-0.1109)  26 C4     *pz    ( 1.2053)  27 C4     *pz    ( 4.4074)
                30 C4     *d1-   ( 0.2204)  33 C4     *d1+   (-0.8356)
 
      MOLECULAR ORBITALS FOR SYMMETRY SPECIES 6: b2g
 
      INDEX  ENERGY  OCCUPATION COEFFICIENTS ...
          1    0.0000    1.3930                                                                                                           
                15 C4     2pz    ( 0.8486)
          2    0.1097    0.0000                                                                                                           
                 5 H2     *pz    (-0.4932)  12 C3     *d1+   (-1.2775)  15 C4     2pz    (-0.1479)  17 C4     *pz    ( 1.6147)
                18 C4     *pz    ( 2.0646)  21 C4     *d1-   ( 0.8849)  24 C4     *d1+   (-0.2741)
 
      MOLECULAR ORBITALS FOR SYMMETRY SPECIES 7: b3g
 
      INDEX  ENERGY  OCCUPATION COEFFICIENTS ...
          1    0.0000    1.3242                                                                                                           
                13 C3     2pz    ( 0.6889)  24 C4     2pz    ( 0.4835)
          2    0.0000    0.1967                                                                                                           
                13 C3     2pz    ( 0.6098)  15 C3     *pz    ( 0.4142)  16 C3     *pz    ( 0.6621)  24 C4     2pz    (-0.9453)
                26 C4     *pz    (-0.5528)  27 C4     *pz    (-0.8262)
          3    0.1104    0.0000                                                                                                           
                 3 H1     *pz    (-0.4054)   8 H2     *pz    (-0.2860)  13 C3     2pz    (-0.1486)  15 C3     *pz    ( 1.2529)
                16 C3     *pz    ( 1.2322)  19 C3     *d1-   ( 0.1902)  26 C4     *pz    ( 1.0322)  27 C4     *pz    ( 1.8316)
                30 C4     *d1-   (-1.3135)  33 C4     *d1+   ( 0.8604)
 
      MOLECULAR ORBITALS FOR SYMMETRY SPECIES 8: au 
 
      INDEX  ENERGY  OCCUPATION COEFFICIENTS ...
          1    0.0000    0.6371                                                                                                           
                15 C4     2pz    ( 0.9390)  17 C4     *pz    ( 0.2283)  18 C4     *pz    ( 0.3151)
          2    0.1430    0.0000                                                                                                           
                 4 H2     *pz    (-0.1402)   5 H2     *pz    (-0.2061)  12 C3     *d1+   (-0.4927)  15 C4     2pz    (-0.1789)
                17 C4     *pz    ( 2.0744)  18 C4     *pz    ( 7.6304)  21 C4     *d1-   (-0.8248)  24 C4     *d1+   (-0.7375)
                28 C4     *f0    (-0.1245)
--
 
      Von Neumann Entropy (Root   1) =  0.65512
 

      Mulliken population analysis for root number:  1
      -----------------------------------------------
 
 
++    Molecular charges:
      ------------------
 
      Mulliken charges per centre and basis function type
      ---------------------------------------------------
 
                H1      H2      C3      C4    
      1s       1.3966  1.3982  2.0014  2.0014
      2s       0.0000  0.0000  1.5013  1.4985
      2px      0.0000  0.0000  1.1742  1.2080
      2pz      0.0000  0.0000  0.9537  0.9663
      2py      0.0000  0.0000  1.2254  1.1838
      *s      -0.8669 -0.8633 -0.0731 -0.0766
      *px      0.0081 -0.0073 -0.2024 -0.1647
      *pz      0.0163  0.0151  0.0142  0.0022
      *py     -0.0122  0.0029 -0.1525 -0.1879
      *d2+     0.0010  0.0002  0.0206  0.0128
      *d1+    -0.0000  0.0029  0.0006  0.0074
      *d0     -0.0013 -0.0014 -0.0069 -0.0069
      *d1-     0.0040  0.0009  0.0076  0.0036
      *d2-    -0.0000  0.0008  0.0092  0.0174
      *f3+     0.0000  0.0000 -0.0202 -0.0202
      *f2+     0.0000  0.0000  0.0004  0.0001
      *f1+     0.0000  0.0000  0.0002  0.0004
      *f0      0.0000  0.0000  0.0019  0.0018
      *f1-     0.0000  0.0000  0.0004  0.0003
      *f2-     0.0000  0.0000 -0.0000  0.0003
      *f3-     0.0000  0.0000  0.0016  0.0016
      Total    0.5455  0.5491  6.4575  6.4494
 
      N-E      0.4545  0.4509 -0.4575 -0.4494
 
      Total electronic charge=   42.000000
 
      Total            charge=   -0.000000
--
 
 

      Expectation values of various properties for root number:  1
      -----------------------------------------------------------
 
 
++    Molecular properties:
      ---------------------
 
      Charge (e):
                      =   -0.0000
      Dipole Moment (Debye):
      Origin of the operator (Ang)=    0.0000    0.0000    0.0000
                   X= -2.2575E-15               Y=  0.0000E+00               Z=  0.0000E+00           Total=  2.2575E-15
      Quadrupole Moment (Debye*Ang):
      Origin of the operator (Ang)=    0.0000    0.0000    0.0000
                  XX= -3.1403E+01              XY=  7.5363E-16              XZ=  0.0000E+00              YY= -3.1492E+01
                  YZ=  0.0000E+00              ZZ= -4.0298E+01
      In traceless form (Debye*Ang)
                  XX=  4.4918E+00              XY=  1.1305E-15              XZ=  0.0000E+00              YY=  4.3590E+00
                  YZ=  0.0000E+00              ZZ= -8.8508E+00
--
 
      Von Neumann Entropy (Root   2) =  2.21484
 

      Mulliken population analysis for root number:  2
      -----------------------------------------------
 
 
++    Molecular charges:
      ------------------
 
      Mulliken charges per centre and basis function type
      ---------------------------------------------------
 
                H1      H2      C3      C4    
      1s       1.3966  1.3982  2.0014  2.0014
      2s       0.0000  0.0000  1.5013  1.4985
      2px      0.0000  0.0000  1.1742  1.2080
      2pz      0.0000  0.0000  0.8934  0.9095
      2py      0.0000  0.0000  1.2254  1.1838
      *s      -0.8669 -0.8633 -0.0731 -0.0766
      *px      0.0081 -0.0073 -0.2024 -0.1647
      *pz      0.0275  0.0190  0.0646  0.0234
      *py     -0.0122  0.0029 -0.1525 -0.1879
      *d2+     0.0010  0.0002  0.0206  0.0128
      *d1+    -0.0001  0.0025  0.0072  0.0159
      *d0     -0.0013 -0.0014 -0.0069 -0.0069
      *d1-     0.0036  0.0009  0.0112  0.0194
      *d2-    -0.0000  0.0008  0.0092  0.0174
      *f3+     0.0000  0.0000 -0.0202 -0.0202
      *f2+     0.0000  0.0000  0.0010  0.0003
      *f1+     0.0000  0.0000  0.0002  0.0004
      *f0      0.0000  0.0000  0.0032  0.0023
      *f1-     0.0000  0.0000  0.0004  0.0003
      *f2-     0.0000  0.0000  0.0001  0.0008
      *f3-     0.0000  0.0000  0.0016  0.0016
      Total    0.5562  0.5526  6.4599  6.4393
 
      N-E      0.4438  0.4474 -0.4599 -0.4393
 
      Total electronic charge=   42.000000
 
      Total            charge=   -0.000000
--
 
 

      Expectation values of various properties for root number:  2
      -----------------------------------------------------------
 
 
++    Molecular properties:
      ---------------------
 
      Charge (e):
                      =   -0.0000
      Dipole Moment (Debye):
      Origin of the operator (Ang)=    0.0000    0.0000    0.0000
                   X= -2.2575E-15               Y=  0.0000E+00               Z=  0.0000E+00           Total=  2.2575E-15
      Quadrupole Moment (Debye*Ang):
      Origin of the operator (Ang)=    0.0000    0.0000    0.0000
                  XX= -3.4473E+01              XY=  7.5363E-16              XZ=  0.0000E+00              YY= -3.3956E+01
                  YZ=  0.0000E+00              ZZ= -4.0791E+01
      In traceless form (Debye*Ang)
                  XX=  2.9005E+00              XY=  1.1305E-15              XZ=  0.0000E+00              YY=  3.6761E+00
                  YZ=  0.0000E+00              ZZ= -6.5765E+00
--
 
      Von Neumann Entropy (Root   3) =  2.31324
 

      Mulliken population analysis for root number:  3
      -----------------------------------------------
 
 
++    Molecular charges:
      ------------------
 
      Mulliken charges per centre and basis function type
      ---------------------------------------------------
 
                H1      H2      C3      C4    
      1s       1.3966  1.3982  2.0014  2.0014
      2s       0.0000  0.0000  1.5013  1.4985
      2px      0.0000  0.0000  1.1742  1.2080
      2pz      0.0000  0.0000  0.8969  0.9025
      2py      0.0000  0.0000  1.2254  1.1838
      *s      -0.8669 -0.8633 -0.0731 -0.0766
      *px      0.0081 -0.0073 -0.2024 -0.1647
      *pz      0.0231  0.0202  0.0499  0.0243
      *py     -0.0122  0.0029 -0.1525 -0.1879
      *d2+     0.0010  0.0002  0.0206  0.0128
      *d1+    -0.0002  0.0025  0.0262  0.0168
      *d0     -0.0013 -0.0014 -0.0069 -0.0069
      *d1-     0.0035  0.0007  0.0108  0.0213
      *d2-    -0.0000  0.0008  0.0092  0.0174
      *f3+     0.0000  0.0000 -0.0202 -0.0202
      *f2+     0.0000  0.0000  0.0009  0.0005
      *f1+     0.0000  0.0000  0.0002  0.0004
      *f0      0.0000  0.0000  0.0029  0.0030
      *f1-     0.0000  0.0000  0.0004  0.0003
      *f2-     0.0000  0.0000  0.0006  0.0008
      *f3-     0.0000  0.0000  0.0016  0.0016
      Total    0.5517  0.5536  6.4672  6.4370
 
      N-E      0.4483  0.4464 -0.4672 -0.4370
 
      Total electronic charge=   42.000000
 
      Total            charge=   -0.000000
--
 
 

      Expectation values of various properties for root number:  3
      -----------------------------------------------------------
 
 
++    Molecular properties:
      ---------------------
 
      Charge (e):
                      =   -0.0000
      Dipole Moment (Debye):
      Origin of the operator (Ang)=    0.0000    0.0000    0.0000
                   X= -2.2575E-15               Y=  0.0000E+00               Z=  0.0000E+00           Total=  2.2575E-15
      Quadrupole Moment (Debye*Ang):
      Origin of the operator (Ang)=    0.0000    0.0000    0.0000
                  XX= -3.4090E+01              XY=  7.5363E-16              XZ=  0.0000E+00              YY= -3.4527E+01
                  YZ=  0.0000E+00              ZZ= -4.0926E+01
      In traceless form (Debye*Ang)
                  XX=  3.6361E+00              XY=  1.1305E-15              XZ=  0.0000E+00              YY=  2.9818E+00
                  YZ=  0.0000E+00              ZZ= -6.6178E+00
--
 
      Von Neumann Entropy (Root   4) =  2.54912
 

      Mulliken population analysis for root number:  4
      -----------------------------------------------
 
 
++    Molecular charges:
      ------------------
 
      Mulliken charges per centre and basis function type
      ---------------------------------------------------
 
                H1      H2      C3      C4    
      1s       1.3966  1.3982  2.0014  2.0014
      2s       0.0000  0.0000  1.5013  1.4985
      2px      0.0000  0.0000  1.1742  1.2080
      2pz      0.0000  0.0000  0.8836  0.8885
      2py      0.0000  0.0000  1.2254  1.1838
      *s      -0.8669 -0.8633 -0.0731 -0.0766
      *px      0.0081 -0.0073 -0.2024 -0.1647
      *pz      0.0250  0.0221  0.0582  0.0343
      *py     -0.0122  0.0029 -0.1525 -0.1879
      *d2+     0.0010  0.0002  0.0206  0.0128
      *d1+    -0.0002  0.0025  0.0288  0.0174
      *d0     -0.0013 -0.0014 -0.0069 -0.0069
      *d1-     0.0035  0.0007  0.0108  0.0229
      *d2-    -0.0000  0.0008  0.0092  0.0174
      *f3+     0.0000  0.0000 -0.0202 -0.0202
      *f2+     0.0000  0.0000  0.0010  0.0005
      *f1+     0.0000  0.0000  0.0002  0.0004
      *f0      0.0000  0.0000  0.0030  0.0031
      *f1-     0.0000  0.0000  0.0004  0.0003
      *f2-     0.0000  0.0000  0.0006  0.0009
      *f3-     0.0000  0.0000  0.0016  0.0016
      Total    0.5535  0.5554  6.4651  6.4353
 
      N-E      0.4465  0.4446 -0.4651 -0.4353
 
      Total electronic charge=   42.000000
 
      Total            charge=   -0.000000
--
 
 

      Expectation values of various properties for root number:  4
      -----------------------------------------------------------
 
 
++    Molecular properties:
      ---------------------
 
      Charge (e):
                      =   -0.0000
      Dipole Moment (Debye):
      Origin of the operator (Ang)=    0.0000    0.0000    0.0000
                   X= -2.2575E-15               Y=  0.0000E+00               Z=  0.0000E+00           Total=  2.2575E-15
      Quadrupole Moment (Debye*Ang):
      Origin of the operator (Ang)=    0.0000    0.0000    0.0000
                  XX= -3.4681E+01              XY=  7.5363E-16              XZ=  0.0000E+00              YY= -3.5247E+01
                  YZ=  0.0000E+00              ZZ= -4.0951E+01
      In traceless form (Debye*Ang)
                  XX=  3.4184E+00              XY=  1.1305E-15              XZ=  0.0000E+00              YY=  2.5685E+00
                  YZ=  0.0000E+00              ZZ= -5.9868E+00
--
 
      Von Neumann Entropy (Root   5) =  2.17832
 

      Mulliken population analysis for root number:  5
      -----------------------------------------------
 
 
++    Molecular charges:
      ------------------
 
      Mulliken charges per centre and basis function type
      ---------------------------------------------------
 
                H1      H2      C3      C4    
      1s       1.3966  1.3982  2.0014  2.0014
      2s       0.0000  0.0000  1.5013  1.4985
      2px      0.0000  0.0000  1.1742  1.2080
      2pz      0.0000  0.0000  0.8925  0.9299
      2py      0.0000  0.0000  1.2254  1.1838
      *s      -0.8669 -0.8633 -0.0731 -0.0766
      *px      0.0081 -0.0073 -0.2024 -0.1647
      *pz      0.0246  0.0199  0.0617  0.0185
      *py     -0.0122  0.0029 -0.1525 -0.1879
      *d2+     0.0010  0.0002  0.0206  0.0128
      *d1+    -0.0001  0.0027  0.0061  0.0125
      *d0     -0.0013 -0.0014 -0.0069 -0.0069
      *d1-     0.0036  0.0009  0.0082  0.0121
      *d2-    -0.0000  0.0008  0.0092  0.0174
      *f3+     0.0000  0.0000 -0.0202 -0.0202
      *f2+     0.0000  0.0000  0.0008  0.0002
      *f1+     0.0000  0.0000  0.0002  0.0004
      *f0      0.0000  0.0000  0.0026  0.0026
      *f1-     0.0000  0.0000  0.0004  0.0003
      *f2-     0.0000  0.0000  0.0001  0.0006
      *f3-     0.0000  0.0000  0.0016  0.0016
      Total    0.5533  0.5537  6.4512  6.4441
 
      N-E      0.4467  0.4463 -0.4512 -0.4441
 
      Total electronic charge=   42.000000
 
      Total            charge=   -0.000000
--
 
 

      Expectation values of various properties for root number:  5
      -----------------------------------------------------------
 
 
++    Molecular properties:
      ---------------------
 
      Charge (e):
                      =   -0.0000
      Dipole Moment (Debye):
      Origin of the operator (Ang)=    0.0000    0.0000    0.0000
                   X= -2.2575E-15               Y=  0.0000E+00               Z=  0.0000E+00           Total=  2.2575E-15
      Quadrupole Moment (Debye*Ang):
      Origin of the operator (Ang)=    0.0000    0.0000    0.0000
                  XX= -3.3961E+01              XY=  7.5363E-16              XZ=  0.0000E+00              YY= -3.3425E+01
                  YZ=  0.0000E+00              ZZ= -4.0521E+01
      In traceless form (Debye*Ang)
                  XX=  3.0122E+00              XY=  1.1305E-15              XZ=  0.0000E+00              YY=  3.8155E+00
                  YZ=  0.0000E+00              ZZ= -6.8277E+00
--
 
      Von Neumann Entropy (Root   6) =  2.16887
 

      Mulliken population analysis for root number:  6
      -----------------------------------------------
 
 
++    Molecular charges:
      ------------------
 
      Mulliken charges per centre and basis function type
      ---------------------------------------------------
 
                H1      H2      C3      C4    
      1s       1.3966  1.3982  2.0014  2.0014
      2s       0.0000  0.0000  1.5013  1.4985
      2px      0.0000  0.0000  1.1742  1.2080
      2pz      0.0000  0.0000  0.8841  0.9129
      2py      0.0000  0.0000  1.2254  1.1838
      *s      -0.8669 -0.8633 -0.0731 -0.0766
      *px      0.0081 -0.0073 -0.2024 -0.1647
      *pz      0.0183  0.0225  0.0252  0.0349
      *py     -0.0122  0.0029 -0.1525 -0.1879
      *d2+     0.0010  0.0002  0.0206  0.0128
      *d1+    -0.0002  0.0027  0.0380  0.0133
      *d0     -0.0013 -0.0014 -0.0069 -0.0069
      *d1-     0.0035  0.0006  0.0091  0.0177
      *d2-    -0.0000  0.0008  0.0092  0.0174
      *f3+     0.0000  0.0000 -0.0202 -0.0202
      *f2+     0.0000  0.0000  0.0007  0.0006
      *f1+     0.0000  0.0000  0.0002  0.0004
      *f0      0.0000  0.0000  0.0024  0.0033
      *f1-     0.0000  0.0000  0.0004  0.0003
      *f2-     0.0000  0.0000  0.0008  0.0008
      *f3-     0.0000  0.0000  0.0016  0.0016
      Total    0.5468  0.5559  6.4395  6.4510
 
      N-E      0.4532  0.4441 -0.4395 -0.4510
 
      Total electronic charge=   42.000000
 
      Total            charge=   -0.000000
--
 
 

[...]

      Exchange energy scaling factor                                          1.000000
      Correlation energy scaling factor                                       1.000000

      Integrated alpha exchange energy                                      -17.026753
      Integrated beta  exchange energy                                      -16.288581
      Integrated  correlation   energy                                       -1.383392

      Nuclear Repulsion energy                                            204.04227156
      Core energy                                                        -193.38820652
      CASSCF contribution energy                                         -197.08786900
      On-top energy                                                       -34.69872630

      Total MC-PDFT energy for state    6                                -231.78659530

      ********************************************************************************

 
The total execution time is limited to 21360 seconds.
--- Stop Module: mcpdft at Mon Jul 18 10:39:30 2022 /rc=_RC_ALL_IS_WELL_ ---
*** files: xmldump
    saved to directory /work/donglab/kaufold.b/Label-Tutorial/ul-D2h
--- Module mcpdft spent 1 minute 11 seconds ---

*** symbolic link created: INPORB -> ul-D2h.RasOrb
--- Start Module: grid_it at Mon Jul 18 10:39:30 2022 ---

-- Input validation for grid_it
lxml python module not found, no validation possible
--
 
()()()()()()()()()()()()()()()()()()()()()()()()()()()()()()()()()()()()()()()()()()()()()()()()()()

                                              &GRID_IT

                       only a single process is used, running in SERIAL mode
                       available to each process: 46 GB of memory, 16 threads
                                            pid: 188427
()()()()()()()()()()()()()()()()()()()()()()()()()()()()()()()()()()()()()()()()()()()()()()()()()()
 
 INPORB file: ul-D2h.RasOrb
 
      Cartesian coordinates:
      -----------------------------------------
      No.  Label     X         Y         Z     
      -----------------------------------------
       1   H1         0.00000   4.67266   0.00000
       2   H1         0.00000  -4.67266   0.00000
       3   H2         4.04723   2.33566   0.00000
       4   H2        -4.04723   2.33566   0.00000
       5   H2         4.04723  -2.33566   0.00000
       6   H2        -4.04723  -2.33566   0.00000
       7   C3         0.00000   2.62829   0.00000
       8   C3         0.00000  -2.62829   0.00000
       9   C4         2.27648   1.31401   0.00000
      10   C4        -2.27648   1.31401   0.00000
      11   C4         2.27648  -1.31401   0.00000
      12   C4        -2.27648  -1.31401   0.00000
      -----------------------------------------
      Grid Origin      =    -8.000000   -8.000000   -4.000000
      Grid Axis Length =    16.000000   16.000000    8.000000
      -----------------------------------------
 
 
   Input vectors read from INPORB
   Orbital file label: * RASSCF average (pseudo-natural) orbitals
  Number of grid points in file:                   18513
 
  Total number of MOs               :                   414
  Number MOs for grid               :                   415
  Batches processed in increments of:                 18432
 
GridName=  3   76     19.6630 (0.00) s
GridName=  2   62     19.3860 (0.00) s
GridName=  3   75     19.3800 (0.00) s
GridName=  1   76     17.1860 (0.00) s
GridName=  4   62     16.1190 (0.00) s
GridName=  1   75     16.1120 (0.00) s
GridName=  4   61      7.4535 (0.00) s
GridName=  3   74      7.2284 (0.00) s
GridName=  4   60      7.0384 (0.00) s
GridName=  4   59      6.8633 (0.00) s
GridName=  1   74      6.8620 (0.00) s
GridName=  2   61      6.6554 (0.00) s
GridName=  3   73      6.6554 (0.00) s
GridName=  3   72      6.3995 (0.00) s
GridName=  2   60      6.3646 (0.00) s
GridName=  3   71      6.3643 (0.00) s
GridName=  1   73      6.2738 (0.00) s
GridName=  4   58      6.2737 (0.00) s
GridName=  2   59      6.1650 (0.00) s
GridName=  3   70      6.1647 (0.00) s
GridName=  3   69      5.9862 (0.00) s
GridName=  1   72      5.9266 (0.00) s
GridName=  7   39      5.8819 (0.00) s
GridName=  4   57      5.8606 (0.00) s
GridName=  1   71      5.7949 (0.00) s
GridName=  4   56      5.7947 (0.00) s
GridName=  3   68      5.7457 (0.00) s
GridName=  2   58      5.7455 (0.00) s
GridName=  2   57      5.5386 (0.00) s
GridName=  1   70      5.5033 (0.00) s
GridName=  8   30      5.4405 (0.00) s
GridName=  5   39      5.4400 (0.00) s
GridName=  2   56      5.4349 (0.00) s
GridName=  3   67      5.4347 (0.00) s
GridName=  7   38      5.3577 (0.00) s
GridName=  8   29      5.3459 (0.00) s
GridName=  1   69      5.3400 (0.00) s
GridName=  4   55      5.3393 (0.00) s
GridName=  4   54      5.2344 (0.00) s
GridName=  1   68      5.2342 (0.00) s
GridName=  4   53      5.1871 (0.00) s
GridName=  3   66      5.1855 (0.00) s
GridName=  7   37      5.1803 (0.00) s
GridName=  6   30      5.1801 (0.00) s
GridName=  8   28      5.1529 (0.00) s
GridName=  5   38      5.1525 (0.00) s
GridName=  2   55      5.1188 (0.00) s
GridName=  5   37      5.1098 (0.00) s
GridName=  4   52      5.0787 (0.00) s
GridName=  1   67      5.0779 (0.00) s
GridName=  6   29      5.0739 (0.00) s
GridName=  7   36      5.0732 (0.00) s
GridName=  2   54      5.0350 (0.00) s
GridName=  3   65      5.0348 (0.00) s
GridName=  7   35      4.9435 (0.00) s
GridName=  3   64      4.9312 (0.00) s
GridName=  1   66      4.9248 (0.00) s
GridName=  4   51      4.8852 (0.00) s
GridName=  1   65      4.8850 (0.00) s
GridName=  7   34      4.7940 (0.00) s
GridName=  6   28      4.7936 (0.00) s
GridName=  5   36      4.7370 (0.00) s
GridName=  3   63      4.7247 (0.00) s
GridName=  2   53      4.7245 (0.00) s
GridName=  8   27      4.7206 (0.00) s
GridName=  5   35      4.7196 (0.00) s
GridName=  4   50      4.7025 (0.00) s
GridName=  8   26      4.6007 (0.00) s
GridName=  4   49      4.5058 (0.00) s
GridName=  1   64      4.5056 (0.00) s
GridName=  3   62      4.4674 (0.00) s
GridName=  2   52      4.4673 (0.00) s
GridName=  3   61      4.4632 (0.00) s
GridName=  8   25      4.4397 (0.00) s
GridName=  5   34      4.4396 (0.00) s
GridName=  4   48      4.4306 (0.00) s
GridName=  1   63      4.4300 (0.00) s
GridName=  4   47      4.4278 (0.00) s
GridName=  2   51      4.3593 (0.00) s
GridName=  3   60      4.3587 (0.00) s
GridName=  2   50      4.3581 (0.00) s
GridName=  7   33      4.3324 (0.00) s
GridName=  6   27      4.3315 (0.00) s
GridName=  7   32      4.2832 (0.00) s
GridName=  1   62      4.2769 (0.00) s
GridName=  8   24      4.2440 (0.00) s
GridName=  5   33      4.2430 (0.00) s
GridName=  3   59      4.2055 (0.00) s
GridName=  6   26      4.1860 (0.00) s
GridName=  8   23      4.1734 (0.00) s
GridName=  1   61      4.1288 (0.00) s
GridName=  4   46      4.1288 (0.00) s
GridName=  1   60      4.1278 (0.00) s
GridName=  7   31      4.1061 (0.00) s
GridName=  6   25      4.1056 (0.00) s
GridName=  7   30      4.0570 (0.00) s
GridName=  4   45      4.0466 (0.00) s
GridName=  1   59      4.0456 (0.00) s
GridName=  2   49      4.0272 (0.00) s
GridName=  3   58      4.0260 (0.00) s
GridName=  3   57      3.9872 (0.00) s
GridName=  2   48      3.9857 (0.00) s
GridName=  3   56      3.9848 (0.00) s
GridName=  2   47      3.9596 (0.00) s
GridName=  3   55      3.9587 (0.00) s
GridName=  6   24      3.8657 (0.00) s
GridName=  7   29      3.8651 (0.00) s
GridName=  8   22      3.8383 (0.00) s
GridName=  5   32      3.8381 (0.00) s
GridName=  1   58      3.8334 (0.00) s
GridName=  4   44      3.8330 (0.00) s
GridName=  3   54      3.8277 (0.00) s
GridName=  2   46      3.8275 (0.00) s
GridName=  1   57      3.8098 (0.00) s
GridName=  3   53      3.8038 (0.00) s
GridName=  2   45      3.7712 (0.00) s
GridName=  7   28      3.7493 (0.00) s
GridName=  3   52      3.6554 (0.00) s
GridName=  1   56      3.6536 (0.00) s
GridName=  4   43      3.6533 (0.00) s
GridName=  6   23      3.6273 (0.00) s
GridName=  1   55      3.6091 (0.00) s
GridName=  5   31      3.5817 (0.00) s
GridName=  8   21      3.5701 (0.00) s
GridName=  5   30      3.5695 (0.00) s
GridName=  6   22      3.5464 (0.00) s
GridName=  7   27      3.5455 (0.00) s
GridName=  5   29      3.5282 (0.00) s
GridName=  8   20      3.5274 (0.00) s
GridName=  2   44      3.5187 (0.00) s
GridName=  3   51      3.5181 (0.00) s
GridName=  4   42      3.4262 (0.00) s
GridName=  1   54      3.4258 (0.00) s
GridName=  1   53      3.4053 (0.00) s
GridName=  2   43      3.3965 (0.00) s
GridName=  5   28      3.3812 (0.00) s
GridName=  6   21      3.3759 (0.00) s
GridName=  7   26      3.3748 (0.00) s
GridName=  2   42      3.3619 (0.00) s
GridName=  3   50      3.3609 (0.00) s
GridName=  5   27      3.3198 (0.00) s
GridName=  1   52      3.3149 (0.00) s
GridName=  4   41      3.3140 (0.00) s
GridName=  6   20      3.2994 (0.00) s
GridName=  8   19      3.2206 (0.00) s
GridName=  5   26      3.2202 (0.00) s
GridName=  6   19      3.1602 (0.00) s
GridName=  7   25      3.1593 (0.00) s
GridName=  1   51      3.1207 (0.00) s
GridName=  2   41      3.0820 (0.00) s
GridName=  3   49      3.0813 (0.00) s
GridName=  2   40      2.9220 (0.00) s
GridName=  1   50      2.8392 (0.00) s
GridName=  4   40      2.8389 (0.00) s
GridName=  1   49      2.8349 (0.00) s
GridName=  4   39      2.7951 (0.00) s
GridName=  4   38      2.7661 (0.00) s
GridName=  8   18      2.7530 (0.00) s
GridName=  2   39      2.7148 (0.00) s
GridName=  5   25      2.6905 (0.00) s
GridName=  4   37      2.5943 (0.00) s
GridName=  1   48      2.5936 (0.00) s
GridName=  3   48      2.5690 (0.00) s
GridName=  3   47      2.5622 (0.00) s
GridName=  2   38      2.5620 (0.00) s
GridName=  1   47      2.5073 (0.00) s
GridName=  4   36      2.5069 (0.00) s
GridName=  7   24      2.4355 (0.00) s
GridName=  3   46      2.3977 (0.00) s
GridName=  6   18      2.3710 (0.00) s
GridName=  7   23      2.3706 (0.00) s
GridName=  2   37      2.3659 (0.00) s
GridName=  3   45      2.3652 (0.00) s
GridName=  4   35      2.3525 (0.00) s
GridName=  8   17      2.3358 (0.00) s
GridName=  5   24      2.3351 (0.00) s
GridName=  4   34      2.2664 (0.00) s
GridName=  1   46      2.2661 (0.00) s
GridName=  5   23      2.2212 (0.00) s
GridName=  8   16      2.2210 (0.00) s
GridName=  7   22      2.1160 (0.00) s
GridName=  3   44      2.0988 (0.00) s
GridName=  2   36      2.0985 (0.00) s
GridName=  3   43      2.0978 (0.00) s
GridName=  7   21      2.0862 (0.00) s
GridName=  6   17      2.0857 (0.00) s
GridName=  3   42      2.0600 (0.00) s
GridName=  1   45      2.0535 (0.00) s
GridName=  4   33      2.0529 (0.00) s
GridName=  2   35      2.0404 (0.00) s
GridName=  4   32      2.0112 (0.00) s
GridName=  1   44      2.0108 (0.00) s
GridName=  3   41      2.0042 (0.00) s
GridName=  2   34      2.0041 (0.00) s
GridName=  5   22      1.9901 (0.00) s
GridName=  8   15      1.9901 (0.00) s
GridName=  5   21      1.9652 (0.00) s
GridName=  1   43      1.9236 (0.00) s
GridName=  1   42      1.9080 (0.00) s
GridName=  4   31      1.9080 (0.00) s
GridName=  6   16      1.8831 (0.00) s
GridName=  7   20      1.8826 (0.00) s
GridName=  7   19      1.8779 (0.00) s
GridName=  1   41      1.8468 (0.00) s
GridName=  1   40      1.8330 (0.00) s
GridName=  4   30      1.8329 (0.00) s
GridName=  2   33      1.8258 (0.00) s
GridName=  3   40      1.8255 (0.00) s
GridName=  8   14      1.8189 (0.00) s
GridName=  2   32      1.7883 (0.00) s
GridName=  6   15      1.7715 (0.00) s
GridName=  2   31      1.7560 (0.00) s
GridName=  3   39      1.7553 (0.00) s
GridName=  2   30      1.7088 (0.00) s
GridName=  3   38      1.7083 (0.00) s
GridName=  4   29      1.7040 (0.00) s
GridName=  6   14      1.6884 (0.00) s
GridName=  7   18      1.6880 (0.00) s
GridName=  5   20      1.6722 (0.00) s
GridName=  8   13      1.6719 (0.00) s
GridName=  5   19      1.6338 (0.00) s
GridName=  3   37      1.5429 (0.00) s
GridName=  2   29      1.5145 (0.00) s
GridName=  3   36      1.5142 (0.00) s
GridName=  1   39      1.5125 (0.00) s
GridName=  1   38      1.5099 (0.00) s
GridName=  4   28      1.5097 (0.00) s
GridName=  7   17      1.4865 (0.00) s
GridName=  6   13      1.4745 (0.00) s
GridName=  7   16      1.4742 (0.00) s
GridName=  3   35      1.4247 (0.00) s
GridName=  5   18      1.3997 (0.00) s
GridName=  8   12      1.3997 (0.00) s
GridName=  3   34      1.3960 (0.00) s
GridName=  2   28      1.3957 (0.00) s
GridName=  4   27      1.3887 (0.00) s
GridName=  8   11      1.3658 (0.00) s
GridName=  1   37      1.3593 (0.00) s
GridName=  4   26      1.3591 (0.00) s
GridName=  5   17      1.3234 (0.00) s
GridName=  5   16      1.2732 (0.00) s
GridName=  8   10      1.2732 (0.00) s
GridName=  3   33      1.2674 (0.00) s
GridName=  1   36      1.2610 (0.00) s
GridName=  1   35      1.2384 (0.00) s
GridName=  4   25      1.2383 (0.00) s
GridName=  4   24      1.2198 (0.00) s
GridName=  1   34      1.2197 (0.00) s
GridName=  2   27      1.2180 (0.00) s
GridName=  3   32      1.2039 (0.00) s
GridName=  2   26      1.2038 (0.00) s
GridName=  4   23      1.1802 (0.00) s
GridName=  1   33      1.1800 (0.00) s
GridName=  6   12      1.1727 (0.00) s
GridName=  7   15      1.1723 (0.00) s
GridName=  3   31      1.1510 (0.00) s
GridName=  2   25      1.1424 (0.00) s
GridName=  3   30      1.1423 (0.00) s
GridName=  2   24      1.1059 (0.00) s
GridName=  3   29      1.1036 (0.00) s
GridName=  6   11      1.1035 (0.00) s
GridName=  2   23      1.1034 (0.00) s
GridName=  4   22      1.1025 (0.00) s
GridName=  7   14      1.0922 (0.00) s
GridName=  1   32      1.0817 (0.00) s
GridName=  4   21      1.0810 (0.00) s
GridName=  1   31      1.0808 (0.00) s
GridName=  6   10      1.0646 (0.00) s
GridName=  7   13      1.0645 (0.00) s
GridName=  7   12      1.0321 (0.00) s
GridName=  6    9      1.0320 (0.00) s
GridName=  5   15      1.0298 (0.00) s
GridName=  8    9      1.0295 (0.00) s
GridName=  3   28      0.9921 (0.00) s
GridName=  2   22      0.9859 (0.00) s
GridName=  3   27      0.9858 (0.00) s
GridName=  5   14      0.9562 (0.00) s
GridName=  1   30      0.9530 (0.00) s
GridName=  8    8      0.9478 (0.00) s
GridName=  5   13      0.9477 (0.00) s
GridName=  6    8      0.9199 (0.00) s
GridName=  1   29      0.9038 (0.00) s
GridName=  4   20      0.9038 (0.00) s
GridName=  5   12      0.8965 (0.00) s
GridName=  7   11      0.8921 (0.00) s
GridName=  1   28      0.8851 (0.00) s
GridName=  5   11      0.8737 (0.00) s
GridName=  8    7      0.8729 (0.00) s
GridName=  4   19      0.8668 (0.00) s
GridName=  1   27      0.8665 (0.00) s
GridName=  2   21      0.8469 (0.00) s
GridName=  3   26      0.8469 (0.00) s
GridName=  1   26      0.8433 (0.00) s
GridName=  4   18      0.8398 (0.00) s
GridName=  2   20      0.8171 (0.00) s
GridName=  3   25      0.8170 (0.00) s
GridName=  3   24      0.7998 (0.00) s
GridName=  2   19      0.7891 (0.00) s
GridName=  6    7      0.7600 (0.00) s
GridName=  7   10      0.7599 (0.00) s
GridName=  3   23      0.7437 (0.00) s
GridName=  3   22      0.7300 (0.00) s
GridName=  2   18      0.7299 (0.00) s
GridName=  1   25      0.7250 (0.00) s
GridName=  8    6      0.7103 (0.00) s
GridName=  4   17      0.7045 (0.00) s
GridName=  4   16      0.7007 (0.00) s
GridName=  1   24      0.7005 (0.00) s
GridName=  3   21      0.6645 (0.00) s
GridName=  2   17      0.6644 (0.00) s
GridName=  4   15      0.6514 (0.00) s
GridName=  1   23      0.6512 (0.00) s
GridName=  6    6      0.6311 (0.00) s
GridName=  7    9      0.6309 (0.00) s
GridName=  8    5      0.6283 (0.00) s
GridName=  5   10      0.6282 (0.00) s
GridName=  3   20      0.6140 (0.00) s
GridName=  5    9      0.5772 (0.00) s
GridName=  4   14      0.5423 (0.00) s
GridName=  1   22      0.5423 (0.00) s
GridName=  7    8      0.5377 (0.00) s
GridName=  3   19      0.5343 (0.00) s
GridName=  4   13      0.5240 (0.00) s
GridName=  1   21      0.5237 (0.00) s
GridName=  2   16      0.5225 (0.00) s
GridName=  3   18      0.5224 (0.00) s
GridName=  4   12      0.5027 (0.00) s
GridName=  1   20      0.5021 (0.00) s
GridName=  4   11      0.4898 (0.00) s
GridName=  1   19      0.4896 (0.00) s
GridName=  2   15      0.4804 (0.00) s
GridName=  2   14      0.4751 (0.00) s
GridName=  3   17      0.4751 (0.00) s
GridName=  2   13      0.4626 (0.00) s
GridName=  3   16      0.4625 (0.00) s
GridName=  5    8      0.4489 (0.00) s
GridName=  5    7      0.4418 (0.00) s
GridName=  8    4      0.4410 (0.00) s
GridName=  7    7      0.4328 (0.00) s
GridName=  6    5      0.4322 (0.00) s
GridName=  7    6      0.4287 (0.00) s
GridName=  6    4      0.4188 (0.00) s
GridName=  1   18      0.3965 (0.00) s
GridName=  5    6      0.3770 (0.00) s
GridName=  8    3      0.3764 (0.00) s
GridName=  1   17      0.3600 (0.00) s
GridName=  4   10      0.3501 (0.00) s
GridName=  1   16      0.3501 (0.00) s
GridName=  2   12      0.3471 (0.00) s
GridName=  3   15      0.3471 (0.00) s
GridName=  3   14      0.3322 (0.00) s
GridName=  2   11      0.3245 (0.00) s
GridName=  3   13      0.3244 (0.00) s
GridName=  7    5      0.3085 (0.00) s
GridName=  6    3      0.3085 (0.00) s
GridName=  2   10      0.3076 (0.00) s
GridName=  3   12      0.3022 (0.00) s
GridName=  4    9      0.2961 (0.00) s
GridName=  1   15      0.2960 (0.00) s
GridName=  1   14      0.2696 (0.00) s
GridName=  4    8      0.2558 (0.00) s
GridName=  1   13      0.2558 (0.00) s
GridName=  5    5      0.2537 (0.00) s
GridName=  2    9      0.2478 (0.00) s
GridName=  3   11      0.2477 (0.00) s
GridName=  4    7      0.2317 (0.00) s
GridName=  7    4      0.1721 (0.00) s
GridName=  4    6      0.1586 (0.00) s
GridName=  1   12      0.1586 (0.00) s
GridName=  3   10      0.1553 (0.00) s
GridName=  5    4      0.1440 (0.00) s
GridName=  8    2      0.1430 (0.00) s
GridName=  2    8      0.1427 (0.00) s
GridName=  3    9      0.1427 (0.00) s
GridName=  1   11      0.1356 (0.00) s
GridName=  1   10      0.1294 (0.00) s
GridName=  4    5      0.1294 (0.00) s
GridName=  2    7      0.1244 (0.00) s
GridName=  2    6      0.1181 (0.00) s
GridName=  3    8      0.1180 (0.00) s
GridName=  1    9      0.1148 (0.00) s
GridName=  7    3      0.1104 (0.00) s
GridName=  6    2      0.1097 (0.00) s
GridName=  5    3      0.0972 (0.00) s
GridName=  3    7      0.0649 (0.00) s
GridName=  1    8      0.0486 (0.00) s
GridName=  4    4      0.0486 (0.00) s
GridName=  3    6      0.0352 (0.00) s
GridName=  2    5      0.0352 (0.00) s
GridName=  1    7      0.0298 (0.00) s
GridName=  7    2      0.0000 (0.20) 2
GridName=  8    1      0.0000 (0.64) 2
GridName=  5    2      0.0000 (0.71) 2
GridName=  7    1      0.0000 (1.32) 2
GridName=  6    1      0.0000 (1.39) 2
GridName=  5    1      0.0000 (1.74) 2
GridName=  1    6     -0.4963 (2.00) i
GridName=  4    3     -0.4965 (2.00) i
GridName=  2    4     -0.5909 (2.00) i
GridName=  3    5     -0.5919 (2.00) i
GridName=  2    3     -0.6240 (2.00) i
GridName=  3    4     -0.6425 (2.00) i
GridName=  1    5     -0.7136 (2.00) i
GridName=  4    2     -0.8275 (2.00) i
GridName=  1    4     -0.8275 (2.00) i
GridName=  2    2     -1.0167 (2.00) i
GridName=  3    3     -1.0176 (2.00) i
GridName=  1    3     -1.1562 (2.00) i
GridName=  3    2    -11.2290 (2.00) i
GridName=  4    1    -11.2290 (2.00) i
GridName=  1    2    -11.2300 (2.00) i
GridName=  2    1    -11.2300 (2.00) i
GridName=  1    1    -11.2340 (2.00) i
GridName=  3    1    -11.2340 (2.00) i
 
The total execution time is limited to 21360 seconds.
--- Stop Module: grid_it at Mon Jul 18 10:39:31 2022 /rc=_RC_ALL_IS_WELL_ ---
*** files: ul-D2h.lus xmldump
    saved to directory /work/donglab/kaufold.b/Label-Tutorial/ul-D2h

.##################.
.# Happy landing! #.
.##################.

    Timing: Wall=1290.52 User=6437.36 System=548.95
**************************************************************************
*** WorkDir at /scratch/kaufold.b/OpenMolcas/29124419_0/ul-D2h cleaned ***
**************************************************************************
