[Molden Format]
[Atoms] (AU)
S1          1     16           0.00000000      0.00000000      0.00000000
O2          2      8           0.00000000      1.32280829      2.45664396
O3          3      8           0.00000000      1.32280829     -2.45664396
[GTO] (AU)
   1 0
   s  12  1.0000
  0.110800000E+06  0.247634979E-03
  0.166100000E+05  0.192025984E-02
  0.378100000E+04  0.996191915E-02
  0.107100000E+04  0.402974966E-01
  0.349800000E+03  0.128603989E+00
  0.126300000E+03  0.303479974E+00
  0.492600000E+02  0.421431964E+00
  0.201600000E+02  0.230780980E+00
  0.572000000E+01  0.178970985E-01
  0.218200000E+01 -0.297515975E-02
  0.432700000E+00  0.849521928E-03
  0.157000000E+00 -0.367935969E-03
   s  12  1.0000
  0.110800000E+06 -0.687038940E-04
  0.166100000E+05 -0.527680954E-03
  0.378100000E+04 -0.279670976E-02
  0.107100000E+04 -0.112650990E-01
  0.349800000E+03 -0.388833966E-01
  0.126300000E+03 -0.995024914E-01
  0.492600000E+02 -0.199739983E+00
  0.201600000E+02 -0.123359989E+00
  0.572000000E+01  0.513193955E+00
  0.218200000E+01  0.607119947E+00
  0.432700000E+00  0.396752966E-01
  0.157000000E+00 -0.946863918E-02
   s  12  1.0000
  0.110800000E+06  0.199077029E-04
  0.166100000E+05  0.153483022E-03
  0.378100000E+04  0.809503117E-03
  0.107100000E+04  0.328974048E-02
  0.349800000E+03  0.112967016E-01
  0.126300000E+03  0.296385043E-01
  0.492600000E+02  0.599851087E-01
  0.201600000E+02  0.413248060E-01
  0.572000000E+01 -0.207474030E+00
  0.218200000E+01 -0.392889057E+00
  0.432700000E+00  0.632840092E+00
  0.157000000E+00  0.556924081E+00
   s   1  1.0000
  0.157000000E+00  0.100000000E+01
   p   8  1.0000
  0.399700000E+03  0.447540918E-02
  0.941900000E+02  0.341707937E-01
  0.297500000E+02  0.144249973E+00
  0.107700000E+02  0.353927935E+00
  0.411900000E+01  0.459084916E+00
  0.162500000E+01  0.206382962E+00
  0.472600000E+00  0.102140981E-01
  0.140700000E+00 -0.603121889E-04
   p   8  1.0000
  0.399700000E+03 -0.116251053E-02
  0.941900000E+02 -0.865664393E-02
  0.297500000E+02 -0.390886178E-01
  0.107700000E+02 -0.934625425E-01
  0.411900000E+01 -0.147994067E+00
  0.162500000E+01  0.301904137E-01
  0.472600000E+00  0.561573255E+00
  0.140700000E+00  0.534776243E+00
   p   1  1.0000
  0.140700000E+00  0.100000000E+01
   d   1  1.0000
  0.479000000E+00  0.100000000E+01
 
   2 0
   s   9  1.0000
  0.117200000E+05  0.710000250E-03
  0.175900000E+04  0.547000193E-02
  0.400800000E+03  0.278370098E-01
  0.113700000E+03  0.104800037E+00
  0.370300000E+02  0.283062100E+00
  0.132700000E+02  0.448719158E+00
  0.502500000E+01  0.270952096E+00
  0.101300000E+01  0.154580054E-01
  0.302300000E+00 -0.258500091E-02
   s   9  1.0000
  0.117200000E+05 -0.160000015E-03
  0.175900000E+04 -0.126300012E-02
  0.400800000E+03 -0.626700060E-02
  0.113700000E+03 -0.257160025E-01
  0.370300000E+02 -0.709240068E-01
  0.132700000E+02 -0.165411016E+00
  0.502500000E+01 -0.116955011E+00
  0.101300000E+01  0.557368054E+00
  0.302300000E+00  0.572759055E+00
   s   1  1.0000
  0.302300000E+00  0.100000000E+01
   p   4  1.0000
  0.177000000E+02  0.430179924E-01
  0.385400000E+01  0.228912960E+00
  0.104600000E+01  0.508727910E+00
  0.275300000E+00  0.460530919E+00
   p   1  1.0000
  0.275300000E+00  0.100000000E+01
   d   1  1.0000
  0.118500000E+01  0.100000000E+01
 
   3 0
   s   9  1.0000
  0.117200000E+05  0.710000250E-03
  0.175900000E+04  0.547000193E-02
  0.400800000E+03  0.278370098E-01
  0.113700000E+03  0.104800037E+00
  0.370300000E+02  0.283062100E+00
  0.132700000E+02  0.448719158E+00
  0.502500000E+01  0.270952096E+00
  0.101300000E+01  0.154580054E-01
  0.302300000E+00 -0.258500091E-02
   s   9  1.0000
  0.117200000E+05 -0.160000015E-03
  0.175900000E+04 -0.126300012E-02
  0.400800000E+03 -0.626700060E-02
  0.113700000E+03 -0.257160025E-01
  0.370300000E+02 -0.709240068E-01
  0.132700000E+02 -0.165411016E+00
  0.502500000E+01 -0.116955011E+00
  0.101300000E+01  0.557368054E+00
  0.302300000E+00  0.572759055E+00
   s   1  1.0000
  0.302300000E+00  0.100000000E+01
   p   4  1.0000
  0.177000000E+02  0.430179924E-01
  0.385400000E+01  0.228912960E+00
  0.104600000E+01  0.508727910E+00
  0.275300000E+00  0.460530919E+00
   p   1  1.0000
  0.275300000E+00  0.100000000E+01
   d   1  1.0000
  0.118500000E+01  0.100000000E+01
 
[MO]
Ene=   -92.2910
Spin= Alpha
Occup=    2.00000
   1         1.00007174
   2        -0.00130089
   3         0.00253999
   4        -0.00179622
   5        -0.00000000
   6         0.00000036
   7        -0.00000000
   8        -0.00000000
   9         0.00000020
  10         0.00000000
  11         0.00000000
  12         0.00000000
  13        -0.00000000
  14         0.00000000
  15        -0.00000000
  16         0.00000000
  17        -0.00000000
  18         0.00000000
  19        -0.00000283
  20         0.00005386
  21         0.00000095
  22         0.00000000
  23        -0.00003506
  24        -0.00006515
  25        -0.00000000
  26        -0.00000066
  27        -0.00000122
  28         0.00000000
  29         0.00000000
  30         0.00000000
  31         0.00000000
  32         0.00000000
  33        -0.00000283
  34         0.00005386
  35         0.00000095
  36         0.00000000
  37        -0.00003506
  38         0.00006515
  39        -0.00000000
  40        -0.00000066
  41         0.00000122
  42         0.00000000
  43        -0.00000000
  44        -0.00000000
  45         0.00000000
  46         0.00000000
Ene=   -20.6860
Spin= Alpha
Occup=    2.00000
   1        -0.00000000
   2        -0.00000000
   3        -0.00000000
   4         0.00000000
   5        -0.00000000
   6        -0.00000000
   7         0.00002585
   8        -0.00000000
   9        -0.00000000
  10        -0.00158531
  11         0.00000000
  12         0.00000000
  13        -0.00000437
  14         0.00000000
  15        -0.00000000
  16         0.00000000
  17        -0.00000000
  18         0.00000000
  19        -0.70661139
  20         0.00205813
  21        -0.00214397
  22        -0.00000000
  23         0.00001024
  24        -0.00000777
  25         0.00000000
  26         0.00000019
  27        -0.00000015
  28         0.00000000
  29        -0.00000000
  30         0.00000000
  31         0.00000000
  32        -0.00000000
  33         0.70661139
  34        -0.00205813
  35         0.00214397
  36         0.00000000
  37        -0.00001024
  38        -0.00000777
  39        -0.00000000
  40        -0.00000019
  41        -0.00000015
  42         0.00000000
  43        -0.00000000
  44        -0.00000000
  45         0.00000000
  46         0.00000000
Ene=   -20.6860
Spin= Alpha
Occup=    2.00000
   1         0.00001427
   2        -0.00008062
   3         0.00172016
   4        -0.00001190
   5         0.00000000
   6        -0.00001295
   7         0.00000000
   8         0.00000000
   9         0.00085403
  10        -0.00000000
  11        -0.00000000
  12         0.00000235
  13        -0.00000000
  14         0.00000000
  15         0.00000000
  16         0.00000000
  17        -0.00000000
  18         0.00000000
  19         0.70662365
  20        -0.00204716
  21         0.00214421
  22         0.00000000
  23        -0.00000448
  24        -0.00003521
  25        -0.00000000
  26        -0.00000008
  27        -0.00000066
  28        -0.00000000
  29         0.00000000
  30        -0.00000000
  31         0.00000000
  32        -0.00000000
  33         0.70662365
  34        -0.00204716
  35         0.00214421
  36        -0.00000000
  37        -0.00000448
  38         0.00003521
  39         0.00000000
  40        -0.00000008
  41         0.00000066
  42        -0.00000000
  43        -0.00000000
  44        -0.00000000
  45         0.00000000
  46        -0.00000000
Ene=    -9.0676
Spin= Alpha
Occup=    2.00000
   1         0.00132877
   2         0.99588812
   3        -0.01494060
   4         0.00791961
   5         0.00000000
   6         0.00116683
   7         0.00000000
   8         0.00000000
   9         0.00019628
  10        -0.00000000
  11        -0.00000000
  12         0.00000155
  13        -0.00000000
  14         0.00000000
  15        -0.00000000
  16        -0.00000000
  17         0.00000000
  18        -0.00000000
  19         0.00009717
  20         0.00553668
  21         0.00009931
  22        -0.00000000
  23        -0.00301982
  24        -0.00565021
  25         0.00000000
  26        -0.00005643
  27        -0.00010559
  28         0.00000000
  29         0.00000000
  30        -0.00000000
  31         0.00000000
  32        -0.00000000
  33         0.00009717
  34         0.00553668
  35         0.00009931
  36        -0.00000000
  37        -0.00301982
  38         0.00565021
  39         0.00000000
  40        -0.00005643
  41         0.00010559
  42        -0.00000000
  43         0.00000000
  44        -0.00000000
  45         0.00000000
  46        -0.00000000
Ene=    -6.6865
Spin= Alpha
Occup=    2.00000
   1        -0.00000000
   2        -0.00000000
   3         0.00000000
   4        -0.00000000
   5         0.00000000
   6         0.00000000
   7         0.99928432
   8        -0.00000000
   9        -0.00000000
  10        -0.00779304
  11         0.00000000
  12         0.00000000
  13         0.00083941
  14        -0.00000000
  15        -0.00000000
  16        -0.00000000
  17         0.00000000
  18         0.00000000
  19         0.00003858
  20         0.00490399
  21         0.00008782
  22        -0.00000000
  23        -0.00255683
  24        -0.00333986
  25         0.00000000
  26        -0.00004778
  27        -0.00006241
  28        -0.00000000
  29         0.00000000
  30         0.00000000
  31        -0.00000000
  32        -0.00000000
  33        -0.00003858
  34        -0.00490399
  35        -0.00008782
  36         0.00000000
  37         0.00255683
  38        -0.00333986
  39        -0.00000000
  40         0.00004778
  41        -0.00006241
  42         0.00000000
  43         0.00000000
  44         0.00000000
  45        -0.00000000
  46        -0.00000000
Ene=    -6.6840
Spin= Alpha
Occup=    2.00000
   1        -0.00008109
   2        -0.00222730
   3         0.00048596
   4        -0.00002053
   5        -0.00000000
   6         0.99968149
   7        -0.00000000
   8        -0.00000000
   9        -0.00806479
  10         0.00000000
  11         0.00000000
  12         0.00083900
  13        -0.00000000
  14        -0.00000000
  15         0.00000000
  16        -0.00000000
  17         0.00000000
  18         0.00000000
  19         0.00000815
  20         0.00268238
  21         0.00004800
  22         0.00000000
  23        -0.00000096
  24        -0.00257479
  25        -0.00000000
  26        -0.00000002
  27        -0.00004812
  28        -0.00000000
  29         0.00000000
  30        -0.00000000
  31        -0.00000000
  32         0.00000000
  33         0.00000815
  34         0.00268238
  35         0.00004800
  36         0.00000000
  37        -0.00000096
  38         0.00257479
  39        -0.00000000
  40        -0.00000002
  41         0.00004812
  42        -0.00000000
  43         0.00000000
  44         0.00000000
  45        -0.00000000
  46        -0.00000000
Ene=    -6.6830
Spin= Alpha
Occup=    2.00000
   1        -0.00000000
   2        -0.00000000
   3        -0.00000000
   4         0.00000000
   5         0.99985304
   6         0.00000000
   7        -0.00000000
   8        -0.00817878
   9        -0.00000000
  10         0.00000000
  11         0.00083884
  12         0.00000000
  13        -0.00000000
  14         0.00000000
  15        -0.00000000
  16        -0.00000000
  17         0.00000000
  18         0.00000000
  19        -0.00000000
  20        -0.00000000
  21         0.00000000
  22         0.00137162
  23         0.00000000
  24        -0.00000000
  25         0.00002563
  26        -0.00000000
  27         0.00000000
  28        -0.00000000
  29        -0.00000000
  30         0.00000000
  31        -0.00000000
  32         0.00000000
  33         0.00000000
  34         0.00000000
  35        -0.00000000
  36         0.00137162
  37        -0.00000000
  38         0.00000000
  39         0.00002563
  40         0.00000000
  41         0.00000000
  42         0.00000000
  43         0.00000000
  44         0.00000000
  45        -0.00000000
  46         0.00000000
Ene=    -1.6045
Spin= Alpha
Occup=    2.00000
   1        -0.00645284
   2        -0.05709747
   3         0.41382685
   4        -0.00314148
   5        -0.00000000
   6        -0.02049400
   7         0.00000000
   8        -0.00000000
   9         0.08921912
  10        -0.00000000
  11         0.00000000
  12         0.00022941
  13        -0.00000000
  14        -0.00000000
  15         0.00000000
  16        -0.00000000
  17         0.00000000
  18        -0.00000000
  19        -0.01644169
  20         0.48114283
  21         0.00855369
  22         0.00000000
  23        -0.02996807
  24        -0.09167910
  25        -0.00000000
  26        -0.00056004
  27        -0.00171328
  28         0.00000000
  29        -0.00000000
  30         0.00000000
  31        -0.00000000
  32         0.00000000
  33        -0.01644169
  34         0.48114283
  35         0.00855369
  36         0.00000000
  37        -0.02996807
  38         0.09167910
  39        -0.00000000
  40        -0.00056004
  41         0.00171328
  42         0.00000000
  43        -0.00000000
  44         0.00000000
  45        -0.00000000
  46        -0.00000000
Ene=    -1.4113
Spin= Alpha
Occup=    2.00000
   1         0.00000000
   2         0.00000000
   3         0.00000000
   4        -0.00000000
   5        -0.00000000
   6        -0.00000000
   7         0.03523026
   8        -0.00000000
   9         0.00000000
  10        -0.22237218
  11        -0.00000000
  12        -0.00000000
  13        -0.00058544
  14        -0.00000000
  15         0.00000000
  16        -0.00000000
  17        -0.00000000
  18        -0.00000000
  19         0.01431085
  20        -0.59670710
  21        -0.01062694
  22         0.00000000
  23         0.03609153
  24         0.01295299
  25         0.00000000
  26         0.00067447
  27         0.00024206
  28        -0.00000000
  29         0.00000000
  30        -0.00000000
  31        -0.00000000
  32         0.00000000
  33        -0.01431085
  34         0.59670710
  35         0.01062694
  36         0.00000000
  37        -0.03609153
  38         0.01295299
  39         0.00000000
  40        -0.00067447
  41         0.00024206
  42        -0.00000000
  43        -0.00000000
  44         0.00000000
  45        -0.00000000
  46        -0.00000000
Ene=    -0.8740
Spin= Alpha
Occup=    2.00000
   1         0.00555644
   2         0.03607702
   3        -0.53029514
   4         0.00373902
   5         0.00000000
   6         0.00752196
   7        -0.00000000
   8         0.00000000
   9         0.10348038
  10        -0.00000000
  11         0.00000000
  12         0.00029304
  13         0.00000000
  14        -0.00000000
  15        -0.00000000
  16         0.00000000
  17         0.00000000
  18         0.00000000
  19         0.01060374
  20         0.42758322
  21         0.00767934
  22         0.00000000
  23         0.22919197
  24         0.31948979
  25         0.00000000
  26         0.00428309
  27         0.00597056
  28         0.00000000
  29         0.00000000
  30        -0.00000000
  31        -0.00000000
  32        -0.00000000
  33         0.01060374
  34         0.42758322
  35         0.00767934
  36        -0.00000000
  37         0.22919197
  38        -0.31948979
  39        -0.00000000
  40         0.00428309
  41        -0.00597056
  42        -0.00000000
  43         0.00000000
  44        -0.00000000
  45         0.00000000
  46         0.00000000
Ene=    -0.7351
Spin= Alpha
Occup=    2.00000
   1         0.00000000
   2         0.00000000
   3         0.00000000
   4        -0.00000000
   5        -0.01428722
   6         0.00000000
   7         0.00000000
   8         0.37946094
   9         0.00000000
  10        -0.00000000
  11         0.00103850
  12        -0.00000000
  13         0.00000000
  14         0.00000000
  15         0.00000000
  16         0.00000000
  17        -0.00000000
  18         0.00000000
  19         0.00000000
  20         0.00000000
  21        -0.00000000
  22         0.56280837
  23         0.00000000
  24         0.00000000
  25         0.01051764
  26         0.00000000
  27         0.00000000
  28        -0.00000000
  29         0.00000000
  30        -0.00000000
  31         0.00000000
  32         0.00000000
  33        -0.00000000
  34        -0.00000000
  35         0.00000000
  36         0.56280837
  37        -0.00000000
  38         0.00000000
  39         0.01051764
  40        -0.00000000
  41         0.00000000
  42         0.00000000
  43         0.00000000
  44        -0.00000000
  45        -0.00000000
  46         0.00000000
Ene=    -0.7223
Spin= Alpha
Occup=    2.00000
   1        -0.00210217
   2        -0.01888280
   3        -0.12553612
   4         0.00067573
   5         0.00000000
   6        -0.01649651
   7        -0.00000000
   8        -0.00000000
   9         0.33403702
  10         0.00000000
  11         0.00000000
  12         0.00091081
  13        -0.00000000
  14         0.00000000
  15         0.00000000
  16        -0.00000000
  17        -0.00000000
  18        -0.00000000
  19        -0.00613475
  20        -0.10468392
  21        -0.00189103
  22        -0.00000000
  23         0.43201063
  24        -0.38645524
  25         0.00000000
  26         0.00807332
  27        -0.00722199
  28         0.00000000
  29        -0.00000000
  30         0.00000000
  31         0.00000000
  32        -0.00000000
  33        -0.00613475
  34        -0.10468392
  35        -0.00189103
  36        -0.00000000
  37         0.43201063
  38         0.38645524
  39         0.00000000
  40         0.00807332
  41         0.00722199
  42         0.00000000
  43         0.00000000
  44        -0.00000000
  45         0.00000000
  46         0.00000000
Ene=    -0.6907
Spin= Alpha
Occup=    2.00000
   1        -0.00000000
   2        -0.00000000
   3        -0.00000000
   4         0.00000000
   5         0.00000000
   6         0.00000000
   7         0.03998726
   8        -0.00000000
   9         0.00000000
  10        -0.26209070
  11        -0.00000000
  12         0.00000000
  13        -0.00069134
  14         0.00000000
  15        -0.00000000
  16        -0.00000000
  17        -0.00000000
  18        -0.00000000
  19         0.01320054
  20         0.21098806
  21         0.00381391
  22        -0.00000000
  23         0.52969245
  24         0.30577793
  25         0.00000000
  26         0.00989878
  27         0.00571431
  28         0.00000000
  29        -0.00000000
  30         0.00000000
  31         0.00000000
  32         0.00000000
  33        -0.01320054
  34        -0.21098806
  35        -0.00381391
  36        -0.00000000
  37        -0.52969245
  38         0.30577793
  39         0.00000000
  40        -0.00989878
  41         0.00571431
  42        -0.00000000
  43        -0.00000000
  44         0.00000000
  45         0.00000000
  46        -0.00000000
Ene=    -0.6278
Spin= Alpha
Occup=    2.00000
   1         0.00000000
   2         0.00000000
   3         0.00000000
   4        -0.00000000
   5         0.00000000
   6         0.00000000
   7         0.00000000
   8         0.00000000
   9        -0.00000000
  10        -0.00000000
  11        -0.00000000
  12        -0.00000000
  13         0.00000000
  14        -0.00000000
  15         0.00000000
  16         0.00000000
  17         0.00000000
  18        -0.00000000
  19        -0.00000000
  20         0.00000000
  21         0.00000000
  22        -0.69994903
  23        -0.00000000
  24         0.00000000
  25        -0.01308049
  26        -0.00000000
  27         0.00000000
  28         0.00000000
  29         0.00000000
  30        -0.00000000
  31        -0.00000000
  32         0.00000000
  33        -0.00000000
  34        -0.00000000
  35         0.00000000
  36         0.69994903
  37         0.00000000
  38         0.00000000
  39         0.01308049
  40        -0.00000000
  41         0.00000000
  42         0.00000000
  43        -0.00000000
  44        -0.00000000
  45        -0.00000000
  46        -0.00000000
Ene=    -0.6061
Spin= Alpha
Occup=    2.00000
   1         0.00000000
   2         0.00000000
   3         0.00000000
   4        -0.00000000
   5        -0.00000000
   6        -0.00000000
   7         0.02216047
   8        -0.00000000
   9        -0.00000000
  10        -0.06522218
  11        -0.00000000
  12         0.00000000
  13        -0.00016152
  14        -0.00000000
  15         0.00000000
  16         0.00000000
  17        -0.00000000
  18         0.00000000
  19         0.00299546
  20         0.01495050
  21         0.00027661
  22         0.00000000
  23        -0.37422730
  24         0.60353228
  25         0.00000000
  26        -0.00699348
  27         0.01127868
  28        -0.00000000
  29         0.00000000
  30         0.00000000
  31        -0.00000000
  32        -0.00000000
  33        -0.00299546
  34        -0.01495050
  35        -0.00027661
  36        -0.00000000
  37         0.37422730
  38         0.60353228
  39        -0.00000000
  40         0.00699348
  41         0.01127868
  42         0.00000000
  43         0.00000000
  44        -0.00000000
  45        -0.00000000
  46         0.00000000
Ene=    -0.4489
Spin= Alpha
Occup=    2.00000
   1         0.01023017
   2         0.09475693
   3         0.67731148
   4        -0.00369977
   5         0.00000000
   6         0.01027445
   7        -0.00000000
   8        -0.00000000
   9        -0.52993046
  10        -0.00000000
  11        -0.00000000
  12        -0.00145865
  13        -0.00000000
  14        -0.00000000
  15         0.00000000
  16        -0.00000000
  17         0.00000000
  18        -0.00000000
  19        -0.00288914
  20        -0.11418591
  21        -0.00205094
  22         0.00000000
  23         0.52808830
  24         0.20669770
  25        -0.00000000
  26         0.00986880
  27         0.00386272
  28        -0.00000000
  29        -0.00000000
  30        -0.00000000
  31        -0.00000000
  32        -0.00000000
  33        -0.00288914
  34        -0.11418591
  35        -0.00205094
  36        -0.00000000
  37         0.52808830
  38        -0.20669770
  39         0.00000000
  40         0.00986880
  41        -0.00386272
  42        -0.00000000
  43         0.00000000
  44         0.00000000
  45         0.00000000
  46         0.00000000
Ene=    -0.3422
Spin= Alpha
Occup=    0.00000
   1        -0.00000000
   2        -0.00000000
   3        -0.00000000
   4         0.00000000
   5        -0.02035539
   6         0.00000000
   7         0.00000000
   8        -0.98143952
   9         0.00000000
  10         0.00000000
  11        -0.00273537
  12         0.00000000
  13         0.00000000
  14         0.00000000
  15         0.00000000
  16         0.00000000
  17        -0.00000000
  18        -0.00000000
  19         0.00000000
  20         0.00000000
  21        -0.00000000
  22         0.46724781
  23         0.00000000
  24        -0.00000000
  25         0.00873182
  26         0.00000000
  27         0.00000000
  28        -0.00000000
  29         0.00000000
  30        -0.00000000
  31         0.00000000
  32         0.00000000
  33         0.00000000
  34        -0.00000000
  35         0.00000000
  36         0.46724781
  37        -0.00000000
  38        -0.00000000
  39         0.00873182
  40        -0.00000000
  41        -0.00000000
  42         0.00000000
  43        -0.00000000
  44         0.00000000
  45         0.00000000
  46        -0.00000000
Ene=    -0.2268
Spin= Alpha
Occup=    0.00000
   1        -0.01541443
   2        -0.13912870
   3        -0.83223340
   4         0.00437273
   5         0.00000000
   6        -0.04972527
   7         0.00000000
   8         0.00000000
   9        -0.95452767
  10         0.00000000
  11        -0.00000000
  12        -0.00268615
  13        -0.00000000
  14        -0.00000000
  15        -0.00000000
  16         0.00000000
  17         0.00000000
  18        -0.00000000
  19         0.04756002
  20         0.50481518
  21         0.00917456
  22        -0.00000000
  23        -0.02290707
  24        -0.58445479
  25         0.00000000
  26        -0.00042808
  27        -0.01092216
  28        -0.00000000
  29         0.00000000
  30        -0.00000000
  31        -0.00000000
  32        -0.00000000
  33         0.04756002
  34         0.50481518
  35         0.00917456
  36         0.00000000
  37        -0.02290707
  38         0.58445479
  39        -0.00000000
  40        -0.00042808
  41         0.01092216
  42        -0.00000000
  43        -0.00000000
  44         0.00000000
  45        -0.00000000
  46        -0.00000000
Ene=    -0.1804
Spin= Alpha
Occup=    0.00000
   1         0.00000000
   2         0.00000000
   3         0.00000000
   4        -0.00000000
   5         0.00000000
   6        -0.00000000
   7         0.08147879
   8         0.00000000
   9        -0.00000000
  10         1.32255782
  11        -0.00000000
  12        -0.00000000
  13         0.00373267
  14        -0.00000000
  15         0.00000000
  16         0.00000000
  17         0.00000000
  18         0.00000000
  19        -0.06776636
  20        -0.62086768
  21        -0.01131232
  22        -0.00000000
  23         0.38675220
  24         0.34825611
  25        -0.00000000
  26         0.00722754
  27         0.00650813
  28         0.00000000
  29         0.00000000
  30         0.00000000
  31         0.00000000
  32        -0.00000000
  33         0.06776636
  34         0.62086768
  35         0.01131232
  36        -0.00000000
  37        -0.38675220
  38         0.34825611
  39         0.00000000
  40        -0.00722754
  41         0.00650813
  42         0.00000000
  43        -0.00000000
  44        -0.00000000
  45         0.00000000
  46         0.00000000
Ene=     4.5277
Spin= Alpha
Occup=    0.00000
   1        -0.00000000
   2        -0.00000000
   3        -0.00000000
   4         0.00000000
   5        -0.00000000
   6         0.00000000
   7         0.00297598
   8        -0.00000000
   9        -0.00000000
  10        -0.36350619
  11         0.00000000
  12         0.00000000
  13         2.54642881
  14         0.00000000
  15        -0.00000000
  16         0.98212264
  17        -0.00000000
  18        -0.00000000
  19         0.23595963
  20         0.80354123
  21        -2.27840499
  22        -0.00000000
  23        -0.08976658
  24        -0.13577754
  25        -0.00000000
  26         0.54286051
  27         0.73612468
  28        -0.05455745
  29         0.00000000
  30        -0.07845194
  31         0.02985918
  32         0.00000000
  33        -0.23595963
  34        -0.80354123
  35         2.27840499
  36         0.00000000
  37         0.08976658
  38        -0.13577754
  39        -0.00000000
  40        -0.54286051
  41         0.73612468
  42         0.05455745
  43        -0.00000000
  44        -0.07845194
  45        -0.02985918
  46        -0.00000000
Ene=     4.6449
Spin= Alpha
Occup=    0.00000
   1         0.11057196
   2         0.77298533
   3         1.82309529
   4        -4.27837303
   5         0.00000000
   6         0.00281236
   7         0.00000000
   8        -0.00000000
   9         0.30310142
  10        -0.00000000
  11        -0.00000000
  12        -1.62363952
  13         0.00000000
  14        -0.93166205
  15        -0.00000000
  16         0.00000000
  17         0.07540796
  18         0.00000000
  19        -0.24059650
  20        -0.79124974
  21         2.27520322
  22        -0.00000000
  23         0.07290943
  24         0.18036221
  25         0.00000000
  26        -0.41632756
  27        -1.05098409
  28         0.08652814
  29        -0.00000000
  30         0.05824965
  31        -0.00766010
  32         0.00000000
  33        -0.24059650
  34        -0.79124974
  35         2.27520322
  36        -0.00000000
  37         0.07290943
  38        -0.18036221
  39        -0.00000000
  40        -0.41632756
  41         1.05098409
  42         0.08652814
  43        -0.00000000
  44        -0.05824965
  45        -0.00766010
  46         0.00000000
Ene=     4.7458
Spin= Alpha
Occup=    0.00000
   1        -0.00000000
   2        -0.00000000
   3        -0.00000000
   4         0.00000000
   5         0.00238367
   6        -0.00000000
   7         0.00000000
   8         0.05254453
   9        -0.00000000
  10        -0.00000000
  11         0.08019117
  12         0.00000000
  13         0.00000000
  14         0.00000000
  15         0.00000000
  16         0.00000000
  17        -0.00000000
  18         1.02602855
  19         0.00000000
  20         0.00000000
  21        -0.00000000
  22        -0.01190180
  23        -0.00000000
  24        -0.00000000
  25        -0.17240730
  26         0.00000000
  27         0.00000000
  28        -0.00000000
  29        -0.02958403
  30        -0.00000000
  31         0.00000000
  32         0.00832564
  33         0.00000000
  34         0.00000000
  35        -0.00000000
  36        -0.01190180
  37        -0.00000000
  38         0.00000000
  39        -0.17240730
  40         0.00000000
  41        -0.00000000
  42        -0.00000000
  43         0.02958403
  44         0.00000000
  45        -0.00000000
  46         0.00832564
Ene=     4.7928
Spin= Alpha
Occup=    0.00000
   1         0.02279888
   2         0.15618799
   3         0.32959319
   4        -0.98011256
   5        -0.00000000
   6        -0.00021093
   7         0.00000000
   8        -0.00000000
   9         0.02961473
  10        -0.00000000
  11         0.00000000
  12        -0.53386946
  13         0.00000000
  14         0.02228338