[Molden Format]
[Atoms] AU
C    1   6        -10.2010251298         3.1253613611         0.0000000000
H    2   1         -8.1790181665         3.1253613611         0.0000000000
H    3   1        -10.8750148528         3.7839120215        -1.7890037310
H    4   1        -10.8750337500         4.3454252450         1.4648212127
H    5   1        -10.8750337500         1.2467657141         0.3241825183
[GTO]
  1 0
s   5 1.0 
     1238.4016938000         0.0055173650
      186.2900499200         0.0410888285
       42.2511763460         0.1822538213
       11.6765579320         0.4682845944
        3.5930506482         0.4457581734
s   1 1.0 
        0.4024514736         1.0000000000
s   1 1.0 
        0.1309018267         1.0000000000
p   3 1.0 
        9.4680970621         0.0568883320
        2.0103545142         0.3129405934
        0.5477100471         0.7606501651
p   1 1.0 
        0.1526861379         1.0000000000
d   1 1.0 
        0.8000000000         1.0000000000

  2 0
s   3 1.0 
       13.0107010000         0.0334854848
        1.9622572000         0.2347218709
        0.4445379600         0.8137702853
s   1 1.0 
        0.1219496200         1.0000000000
p   1 1.0 
        0.8000000000         1.0000000000

  3 0
s   3 1.0
       13.0107010000         0.0334854848
        1.9622572000         0.2347218709
        0.4445379600         0.8137702853
s   1 1.0
        0.1219496200         1.0000000000
p   1 1.0
        0.8000000000         1.0000000000

  4 0
s   3 1.0
       13.0107010000         0.0334854848
        1.9622572000         0.2347218709
        0.4445379600         0.8137702853
s   1 1.0
        0.1219496200         1.0000000000
p   1 1.0
        0.8000000000         1.0000000000

  5 0
s   3 1.0
       13.0107010000         0.0334854848
        1.9622572000         0.2347218709
        0.4445379600         0.8137702853
s   1 1.0
        0.1219496200         1.0000000000
p   1 1.0
        0.8000000000         1.0000000000

[5D]
[7F]
[9G]
[MO]
 Ene= -1.01610595008597E+01
 Spin= Alpha
 Occup= 2.000000
  1       0.987739799637
  2       0.052849865688
  3      -0.042433215146
  4      -0.000002172754
  5      -0.000001350092
  6      -0.000004601174
  7       0.000000316105
  8       0.000003262922
  9      -0.000007484946
 10       0.000002666175
 11       0.000002514468
 12      -0.000003273474
 13       0.000000135753
 14      -0.000000395335
 15      -0.003662384985
 16       0.008181009813
 17       0.002652165945
 18      -0.000001496977
 19       0.000000269164
 20      -0.003668211835
 21       0.008173647109
 22      -0.000885303489
 23       0.000865734379
 24      -0.002350347037
 25      -0.003662789676
 26       0.008188270191
 27      -0.000883258314
 28       0.001599184860
 29       0.001920917847
 30      -0.003660781782
 31       0.008180758702
 32      -0.000885411367
 33      -0.002464256236
 34       0.000424237613
 Ene= -6.89338253490134E-01
 Spin= Alpha
 Occup= 2.000000
  1       0.250949104049
  2      -0.475647944234
  3      -0.087883521120
  4      -0.000009750648
  5      -0.000002133498
  6      -0.000011859515
  7       0.000008613431
  8      -0.000010069810
  9      -0.000022538660
 10       0.000002371260
 11       0.000003959289
 12      -0.000005605951
 13      -0.000001184976
 14       0.000001053265
 15      -0.184505744707
 16      -0.042356015233
 17       0.023449532118
 18      -0.000000176020
 19       0.000000861016
 20      -0.184511925501
 21      -0.042389402802
 22      -0.007820697149
 23       0.007641230960
 24      -0.020754279173
 25      -0.184503901927
 26      -0.042294558884
 27      -0.007813956618
 28       0.014146978556
 29       0.016984135590
 30      -0.184503532942
 31      -0.042381032969
 32      -0.007820582880
 33      -0.021789891379
 34       0.003757552517
 Ene= -3.91665916286326E-01
 Spin= Alpha
 Occup= 2.000000
  1      -0.000002129856
  2       0.000009870037
  3       0.000035467889
  4       0.073483941506
  5      -0.266493158813
  6       0.349645932023
  7       0.029189872233
  8      -0.105947935763
  9       0.138948492647
 10      -0.015123814569
 11      -0.009474013126
 12       0.006664113073
 13      -0.004752166255
 14       0.007223248689
 15       0.064055829406
 16       0.027953177001
 17      -0.001895430970
 18      -0.008154858282
 19       0.010701832968
 20      -0.366650110513
 21      -0.159923987716
 22      -0.005658262004
 23      -0.000430800692
 24      -0.010282177599
 25       0.059276008737
 26       0.025860212329
 27       0.003527434715
 28      -0.010470062692
 29       0.007922986500
 30       0.243322091515
 31       0.106049302038
 32       0.007493462513
 33       0.006463887124
 34       0.008179257762
 Ene= -3.91651709800875E-01
 Spin= Alpha
 Occup= 2.000000
  1      -0.000004405821
  2       0.000023959807
  3      -0.000011920826
  4       0.402986861171
  5       0.182496918421
  6       0.054398505127
  7       0.160140829595
  8       0.072488705658
  9       0.021643413670
 10      -0.005065577070
 11      -0.001469328333
 12       0.005251872767
 13       0.018914678790
 14      -0.004939229935
 15       0.351267673204
 16       0.153220939908
 17      -0.010385589063
 18       0.005585571947
 19       0.001662040283
 20      -0.107222521440
 21      -0.046746362013
 22       0.010026329384
 23       0.007847791401
 24      -0.004470555251
 25       0.013249830845
 26       0.005798344771
 27       0.012620008470
 28       0.005070151950
 29       0.001043378723
 30      -0.257281542777
 31      -0.112290055660
 32       0.006788485136
 33      -0.009879572272
 34       0.004332693059
 Ene= -3.91646561759250E-01
 Spin= Alpha
 Occup= 2.000000
  1      -0.000007039106
  2       0.000033121755
  3      -0.000021374952
  4      -0.175696235316
  5       0.307151567672
  6       0.271037881458
  7      -0.069761943452
  8       0.122017958436
  9       0.107675260337
 10       0.008590043807
 11      -0.007339624038
 12       0.014819888882
 13      -0.004554834600
 14      -0.008319208102
 15      -0.153147050252
 16      -0.066846158289
 17       0.004531883296
 18       0.009404654386
 19       0.008299437437
 20      -0.070776310453
 21      -0.030859714838
 22      -0.006907925335
 23       0.010896731554
 24       0.004247463497
 25       0.383759898143
 26       0.167430400254
 27       0.002893817602
 28      -0.005579231368
 29      -0.009689107736
 30      -0.159810396297
 31      -0.069736327408
 32      -0.008829461456
 33      -0.000201795701
 34       0.009956522552
 Ene= 7.80304299240922E-02
 Spin= Alpha
 Occup= 0.000000
  1       0.145519774257
  2      -0.205559148157
  3      -3.048986860133
  4      -0.000019545109
  5      -0.000023863454
  6      -0.000040146187
  7      -0.000011620718
  8      -0.000036155100
  9      -0.000077592705
 10       0.000001820146
 11       0.000001832583
 12      -0.000005099101
 13      -0.000000945624
 14       0.000000482865
 15       0.015102042325
 16       1.105160408709
 17       0.006882312105
 18      -0.000001921763
 19      -0.000000434835
 20       0.015095259391
 21       1.104939785648
 22      -0.002295626428
 23       0.002244339163
 24      -0.006092147405
 25       0.015100675054
 26       1.105285184168
 27      -0.002291940275
 28       0.004152086460
 29       0.004984256350
 30       0.015116165332
 31       1.105010111687
 32      -0.002298554869
 33      -0.006394810729
 34       0.001098435120
 Ene= 1.51743281116148E-01
 Spin= Alpha
 Occup= 0.000000
  1       0.000010185566
  2       0.000033115618
  3      -0.000394658387
  4      -0.190482139157
  5       0.047707083029
  6       0.308488392649
  7      -0.666284167334
  8       0.166878787926
  9       1.079071715631
 10      -0.000551107876
 11       0.005546133830
 12      -0.007431437542
 13       0.006531634772
 14       0.000858928898
 15       0.056313777073
 16       1.108403651698
 17       0.002188118539
 18       0.001022528512
 19       0.006608417601
 20       0.057337374493
 21       1.128378253074
 22      -0.006208191765
 23       0.003101424379
 24       0.000963412177
 25      -0.093358776334
 26      -1.837100283400
 27      -0.000618848769
 28      -0.005246851390
 29      -0.000918194571
 30      -0.020285475562
 31      -0.399219211447
 32      -0.003330478760
 33       0.003120642742
 34       0.006248192472
 Ene= 1.51744504121264E-01
 Spin= Alpha
 Occup= 0.000000
  1       0.000003742388
  2       0.000005644999
  3      -0.000120315708
  4       0.210231519162
  5      -0.247533119503
  6       0.168087194001
  7       0.735375159638
  8      -0.865851857609
  9       0.587941435694
 10       0.009837151171
 11       0.003021646671
 12      -0.000637353301
 13      -0.001881438119
 14      -0.004447199404
 15      -0.062159758211
 16      -1.223203457992
 17      -0.002413707954
 18      -0.005301030506
 19       0.003600302036
 20       0.088514203011
 21       1.742189295464
 22       0.001219974463
 23      -0.002094114684
 24      -0.005116757884
 25       0.028878296349
 26       0.568284116807
 27       0.003432105082
 28      -0.003363742932
 29       0.005928146065
 30      -0.055242252405
 31      -1.087109530119
 32       0.006553552469
 33       0.000407601518
 34       0.002614888209
 Ene= 1.51747842442895E-01
 Spin= Alpha
 Occup= 0.000000
  1      -0.000012887084
  2      -0.000027852304
  3       0.000436747130
  4      -0.230744444048
  5      -0.264906243380
  6      -0.101514532084
  7      -0.807156907415
  8      -0.926639117894
  9      -0.355094182341
 10       0.000395428639
 11      -0.001828962561
 12       0.005550011002
 13       0.008522442240
 14      -0.004766492542
 15       0.068221043213
 16       1.342442436879
 17       0.002647874591
 18      -0.005676365551
 19      -0.002177610930
 20      -0.023798619881
 21      -0.468204378036
 22      -0.004060790391
 23      -0.006537959162
 24       0.000167706170
 25       0.046255795816
 26       0.910254241142
 27      -0.006660547394
 28      -0.002568789645
 29       0.001553486441
 30      -0.090702785809
 31      -1.785008187422
 32      -0.001576694703
 33       0.003703636747
 34      -0.003790099146
 Ene= 4.18676558830181E-01
 Spin= Alpha
 Occup= 0.000000
  1       0.000003247622
  2      -0.000056942488
  3       0.000215114328
  4       0.181299779381
  5      -0.130387206040
  6      -0.208193012062
  7      -0.759605289352
  8       0.546264652495
  9       0.872363143939
 10      -0.027132487270
 11       0.033029065332
 12      -0.055050714289
 13       0.041850907045
 14       0.020682436811
 15       0.513808752424
 16      -0.011739906773
 17       0.001496515348
 18       0.016554210188
 19       0.026440225247
 20       0.230513376407
 21      -0.005329482850
 22      -0.026686222058
 23       0.020136401791
 24       0.016703972232
 25      -0.821738505348
 26       0.018668081870
 27      -0.009946589572
 28      -0.007106484406
 29      -0.001964670449
 30       0.077403284177
 31      -0.001806032892
 32      -0.024245891578
 33       0.013124793005
 34       0.027033356986
 Ene= 4.18702869425939E-01
 Spin= Alpha
 Occup= 0.000000
  1      -0.000012521219
  2       0.000089755588
  3      -0.000217662334
  4      -0.056145496556
  5       0.229864671668
  6      -0.192814462380
  7       0.235208790338
  8      -0.963289067007
  9       0.807959847341
 10       0.065039251538
 11       0.030605869002
 12      -0.012401448718
 13       0.019744703045
 14      -0.036490116635
 15      -0.159119570746
 16       0.003671429762
 17      -0.000465353791
 18      -0.029215243036
 19       0.024503337654
 20       0.748905798396
 21      -0.017092734779
 22      -0.004794373822
 23      -0.017569886429
 24      -0.007142600929
 25       0.050276219787
 26      -0.001103013641
 27       0.006330888455
 28      -0.027763769309
 29       0.026238368240
 30      -0.640129995725
 31       0.014749327364
 32       0.017319977459
 33      -0.000802458268
 34       0.019593602071
 Ene= 4.18711072949530E-01
 Spin= Alpha
 Occup= 0.000000
  1      -0.000004950885
  2       0.000097715048
  3      -0.000399589634
  4       0.239143130739
  5       0.152840585293
  6       0.112570876930
  7      -1.001988147910
  8      -0.640225386769
  9      -0.471595841012
 10      -0.017722675929
 11      -0.017854340342
 12       0.038832478937
 13       0.065664965353
 14      -0.024231185345
 15       0.677852485529
 16      -0.015396893285
 17       0.001986781682
 18      -0.019399833433
 19      -0.014295546271
 20      -0.367163833394
 21       0.008507288760
 22      -0.024534415752
 23      -0.025115522363
 24       0.001214972290
 25       0.266460882616
 26      -0.005955232965
 27      -0.034616662697
 28      -0.011731776781
 29      -0.005085689042
 30      -0.577122544196
 31       0.013234815648
 32      -0.021205664912
 33       0.006186859189
 34      -0.018724510103
 Ene= 6.72914313262917E-01
 Spin= Alpha
 Occup= 0.000000
  1       0.322697284665
  2      -2.077750934039
  3       5.393665687514
  4      -0.000226444303
  5      -0.000173383452
  6       0.000179176151
  7       0.000398461776
  8       0.000300939303
  9      -0.000292647366
 10       0.000026636350
 11       0.000018147215
 12      -0.000022647471
 13       0.000051919120
 14      -0.000026816892
 15       0.234916368235
 16      -1.307911844168
 17       0.101781811161
 18      -0.000028904624
 19       0.000013316711
 20       0.234851082361
 21      -1.307697860725
 22      -0.033943677492
 23       0.033139481375
 24      -0.090043322771
 25       0.234738784939
 26      -1.307295627855
 27      -0.033918341421
 28       0.061351503959
 29       0.073701086270
 30       0.234527604083
 31      -1.306807918786
 32      -0.033912170136
 33      -0.094460556572
 34       0.016304473418
 Ene= 6.95673574433937E-01
 Spin= Alpha
 Occup= 0.000000
  1       0.000031770436
  2      -0.000277131688
  3       0.000914265554
  4       0.136394154364
  5       0.729900902163
  6       0.546230317753
  7      -0.242569353111
  8      -1.298200514075
  9      -0.971511479218
 10      -0.032509155265
 11       0.053384597236
 12      -0.115244321832
 13      -0.045428334384
 14       0.071325876739
 15      -0.086723881423
 16       0.284661230530
 17      -0.027915230947
 18       0.056177450343
 19       0.042051002252
 20       0.184901892896
 21      -0.607987069786
 22      -0.016830885800
 23       0.082878504298
 24      -0.030499317843
 25      -0.502382507484
 26       1.650958091476
 27       0.084734614400
 28      -0.078198252556
 29      -0.119282581655
 30       0.404016756986
 31      -1.328368354422
 32      -0.049226349561
 33      -0.110266155059
 34       0.070757880851
 Ene= 6.95683746032150E-01
 Spin= Alpha
 Occup= 0.000000
  1       0.000082603398
  2      -0.000485797942
  3       0.001173148700
  4       0.910066477313
  5      -0.076314321626
  6      -0.125244495300
  7      -1.618654544249
  8       0.135728803618
  9       0.222772550941
 10       0.077619433455
 11      -0.012240138750
 12       0.020265422819
 13      -0.133033853857
 14      -0.007451326426
 15      -0.578086739924
 16       1.900191094694
 17      -0.186266194011
 18      -0.005871495336
 19      -0.009640589620
 20       0.138196125691
 21      -0.454270844934
 22       0.049626714409
 23       0.014072655054
 24      -0.063845007589
 25       0.279742542009
 26      -0.919473996718
 27       0.028705279344
 28       0.068950919079
 29       0.080197649842
 30       0.160492860943
 31      -0.527639658454
 32       0.046319884591
 33      -0.071984840083
 34       0.001757708976
 Ene= 6.95713336551613E-01
 Spin= Alpha
 Occup= 0.000000
  1       0.000084672443
  2      -0.000491653157
  3       0.001154312980
  4      -0.053957095745
  5       0.557831102449
  6      -0.731909060354
  7       0.095973335100
  8      -0.992178033682
  9       1.301814866086
 10      -0.105699826787
 11      -0.071512077449
 12       0.050323130523
 13      -0.050482261858
 14       0.054500278455
 15       0.034367383846
 16      -0.112972376828
 17       0.011073164798
 18       0.042920260089
 19      -0.056316502737
 20      -0.538066656653
 21       1.768927310617
 22       0.075381202812
 23      -0.034783536174
 24       0.154785386436
 25       0.111682935287
 26      -0.367105542343
 27      -0.020648971167
 28       0.072794568978
 29      -0.020457875137
 30       0.392465162257
 31      -1.290077788706
 32      -0.062150551797
 33      -0.118727126313
 34      -0.028427058125
 Ene= 7.96732551843715E-01
 Spin= Alpha
 Occup= 0.000000
  1       0.030386467408
  2      -1.034015971261
  3       4.507173457395
  4       0.000023266711
  5      -0.000023231807
  6      -0.000086032908
  7      -0.000045608421
  8       0.000062387619
  9       0.000151377690
 10       0.000004824654
 11      -0.000007322998
 12       0.000006370263
 13      -0.000007627366
 14      -0.000005148887
 15      -0.751286252777
 16      -0.685254117502
 17      -0.075198921598
 18      -0.000007765756
 19      -0.000007582790
 20      -0.751362776053
 21      -0.685127752971
 22       0.025074528415
 23      -0.024489640176
 24       0.066541489984
 25      -0.751203320320
 26      -0.685515747769
 27       0.025060797610
 28      -0.045357073167
 29      -0.054457735040
 30      -0.751307699264
 31      -0.685246372681
 32       0.025053562961
 33       0.069858829637
 34      -0.012074584711
 Ene= 1.09522194687667E+00
 Spin= Alpha
 Occup= 0.000000
  1       0.000001336755
  2      -0.000011738751
  3       0.000040881215
  4      -0.000010104569
  5      -0.000020647619
  6      -0.000005666950
  7       0.000007595390
  8       0.000020267378
  9       0.000007093377
 10      -0.086794606187
 11       0.301619552041
 12       0.188328736948
 13      -0.050112857223
 14       0.007135116189
 15       0.000003216909
 16      -0.000011847700
 17       0.000006133713
 18       0.008617081521
 19       0.364184257770
 20       0.000000470506
 21      -0.000003665354
 22      -0.319412367111
 23      -0.164643865868
 24       0.059730172193
 25       0.000010078792
 26      -0.000026895896
 27       0.269022633157
 28       0.234879145524
 29      -0.071840881557
 30      -0.000002799195
 31      -0.000000046176
 32       0.050398929058
 33      -0.078833508567
 34      -0.352064949062
 Ene= 1.09522368838898E+00
 Spin= Alpha
 Occup= 0.000000
  1       0.000000267612
  2      -0.000002349211
  3       0.000008484094
  4      -0.000022362200
  5      -0.000011420922
  6      -0.000009617231
  7       0.000031519298
  8       0.000009314809
  9       0.000012975594
 10       0.163102225515
 11      -0.007125297128
 12       0.100215521120
 13       0.094159983142
 14       0.301622660826
 15       0.000007089650
 16      -0.000025661594
 17       0.000004605599
 18       0.364178782036
 19      -0.008601993256
 20      -0.000006617252
 21       0.000017528954
 22       0.126238439966
 23      -0.302519559182
 24      -0.158915168966
 25       0.000006999126
 26      -0.000008753537
 27       0.213503300992
 28      -0.170931804721
 29       0.240614166251
 30      -0.000002107613
 31       0.000006252490
 32      -0.339735297851
 33       0.109279762311
 34      -0.073091536797
 Ene= 1.55399839043178E+00
 Spin= Alpha
 Occup= 0.000000
  1       0.000003194857
  2      -0.000017075977
  3       0.000057042234
  4      -0.000002065823
  5      -0.000000332779
  6      -0.000001320511
  7       0.000015449854
  8       0.000005244864
  9       0.000009497528
 10      -0.000005961663
 11      -0.000000631365
 12       0.000002160918
 13       0.000004549452
 14       0.000002236548
 15      -0.000009866534
 16      -0.000019251891
 17       0.000006824069
 18       0.495708969605
 19       0.312749045928
 20       0.000001829613
 21      -0.000005029671
 22       0.115271550462
 23       0.049665785082
 24      -0.025144398370
 25      -0.000005289212
 26      -0.000012877220
 27      -0.525687376090
 28      -0.341208428614
 29       0.042309621425
 30      -0.000000171004
 31      -0.000007509088
 32       0.410407166342
 33      -0.204182564674
 34      -0.329919736230
 Ene= 1.55400648032586E+00
 Spin= Alpha
 Occup= 0.000000
  1      -0.000002189802
  2       0.000014173399
  3      -0.000038028767
  4       0.000002670995
  5      -0.000000776357
  6      -0.000000522066
  7       0.000000367510
  8      -0.000002834686
  9       0.000014812450
 10       0.000000770070
 11      -0.000000325760
 12       0.000001424956
 13       0.000001828703
 14       0.000001787628
 15      -0.000001199729
 16       0.000010841879
 17      -0.000000791781
 18       0.085870193411
 19      -0.464809109789
 20       0.000010268160
 21       0.000010726335
 22      -0.439197988194
 23       0.345849818432
 24       0.292769518760
 25       0.000000614792
 26       0.000001359363
 27       0.284907923872
 28      -0.335240162224
 29       0.410316468558
 30       0.000002344511
 31       0.000003618379
 32       0.154284857460
 33      -0.096476937642
 34      -0.238301557308
 Ene= 1.55400829210903E+00
 Spin= Alpha
 Occup= 0.000000
  1       0.000008086763
  2      -0.000047427864
  3       0.000148039002
  4       0.000003481575
  5       0.000004941383
  6       0.000002514537
  7      -0.000028352037
  8      -0.000017093905
  9      -0.000018508667
 10       0.000002021150
 11       0.000007456145
 12      -0.000001698071
 13      -0.000004138427
 14       0.000001421659
 15      -0.000001723180
 16      -0.000011695317
 17       0.000001120527
 18       0.386580578553
 19      -0.297809327637
 20      -0.000023761357
 21      -0.000030135375
 22      -0.389393035978
 23      -0.487609925169
 24      -0.032786432538
 25      -0.000005995934
 26      -0.000019732812
 27      -0.017498375622
 28       0.164877975871
 29      -0.145381950918
 30      -0.000013469623
 31      -0.000047146300
 32       0.406910270196
 33      -0.063867420725
 34       0.476001604077
 Ene= 1.78768721193274E+00
 Spin= Alpha
 Occup= 0.000000
  1      -0.000001180694
  2       0.000004834167
  3       0.000006872386
  4      -0.111785166462
  5       0.076623209148
  6       0.097953919796
  7       0.632506528662
  8      -0.433562729154
  9      -0.554264218595
 10      -0.141098839140
 11       0.115429241688
 12      -0.204879191999
 13       0.181980229495
 14       0.090294073481
 15      -0.315826278884
 16      -0.129171485065
 17      -0.321740813364
 18       0.216640413447
 19       0.276941814782
 20      -0.069079958653
 21      -0.028262248147
 22      -0.315625864074
 23       0.216238517964
 24       0.278048982586
 25       0.436391357059
 26       0.178481115151
 27      -0.318670691832
 28       0.221393208088
 29       0.282660045656
 30      -0.051487648727
 31      -0.021056448868
 32      -0.315726397867
 33       0.217502266687
 34       0.276802563753
 Ene= 1.78770270326035E+00
 Spin= Alpha
 Occup= 0.000000
  1       0.000000376083
  2       0.000004828774
  3       0.000006731556
  4       0.093534018501
  5       0.138663135935
  6      -0.001728010275
  7      -0.529118847909
  8      -0.784346282097
  9       0.009747117383
 10      -0.080125860980
 11      -0.002034326302
 12      -0.110802662275
 13      -0.266643330678
 14       0.163342616919
 15       0.264199162857
 16       0.108044488543
 17       0.269176857386
 18       0.391887705285
 19      -0.004860466667
 20       0.043787528245
 21       0.017918445039
 22       0.264113173785
 23       0.392154875250
 24      -0.005560871953
 25       0.144719547047
 26       0.059175032279
 27       0.263487299301
 28       0.393474974924
 29      -0.002949372195
 30      -0.452709097903
 31      -0.185146319056
 32       0.267121313241
 33       0.399524247295
 34      -0.006171612141
 Ene= 1.78771225421251E+00
 Spin= Alpha
 Occup= 0.000000
  1       0.000003010523
  2      -0.000013581205
  3       0.000029087341
  4      -0.082019033338
  5       0.053656094497
  6      -0.135569597249
  7       0.463930918201
  8      -0.303458161826
  9       0.766787289045
 10      -0.247046158541
 11      -0.159675480268
 12       0.152948597444
 13       0.050584749575
 14       0.063194532706
 15      -0.231639665272
 16      -0.094751317441
 17      -0.236002949304
 18       0.151624899594
 19      -0.383121565347
 20       0.465300212308
 21       0.190301710398
 22      -0.234619329864
 23       0.154350219620
 24      -0.390609313479
 25      -0.108718923274
 26      -0.044466108999
 27      -0.231136247577
 28       0.150427099094
 29      -0.384554691721
 30      -0.124936458501
 31      -0.051110289412
 32      -0.231037509424
 33       0.153737633419
 34      -0.383474041255
 Ene= 2.16790771336574E+00
 Spin= Alpha
 Occup= 0.000000
  1       0.000002938850
  2      -0.000019126430
  3       0.000050538072
  4      -0.054525419491
  5       0.331369456449
  6      -0.507944746526
  7      -0.069141687480
  8       0.420178919479
  9      -0.644041038350
 10      -0.301754565084
 11      -0.217087951514
 12       0.169305589398
 13      -0.127615357411
 14       0.141628890848
 15       0.019454982398
 16       0.061671352785
 17      -0.050385379480
 18      -0.324889624407
 19       0.497989342195
 20      -0.205325937299
 21      -0.650978359174
 22      -0.311864720462
 23       0.032060049650
 24      -0.471696664133
 25       0.053453992493
 26       0.169481293771
 27       0.148582811862
 28      -0.497081651224
 29       0.291262943387
 30       0.132397136357
 31       0.419793067771
 32       0.289050905026
 33       0.331756240157
 34       0.384683177807
 Ene= 2.16791363092009E+00
 Spin= Alpha
 Occup= 0.000000
  1      -0.000001509173
  2       0.000015055410
  3      -0.000009816786
  4       0.515119477576
  5      -0.243912886033
  6      -0.214426145382
  7       0.653091429069
  8      -0.309238199684
  9      -0.271838508389
 10       0.246863867965
 11      -0.091643370947
 12       0.185243751321
 13      -0.297776492676
 14      -0.104237860343
 15      -0.183763580973
 16      -0.582620724501
 17       0.475942623064
 18       0.239118248095
 19       0.210205145675
 20       0.021918409058
 21       0.069486739492
 22      -0.466012655677
 23       0.201018181519
 24       0.313706838960
 25       0.169164698056
 26       0.536354642157
 27      -0.203985072525
 28      -0.305768882773
 29      -0.443995160124
 30      -0.007323877091
 31      -0.023215617551
 32      -0.518033409542
 33       0.202797132391
 34       0.216472595075
 Ene= 2.16791837023055E+00
 Spin= Alpha
 Occup= 0.000000
  1      -0.000000329546
  2      -0.000005183232
  3      -0.000023606991
  4       0.320138483855
  5       0.448887934706
  6       0.258492599694
  7       0.405919697583
  8       0.569157539038
  9       0.327720698556
 10      -0.019900087675
 11       0.110477705522
 12      -0.269202544813
 13      -0.285136072118
 14       0.191858674699
 15      -0.114210911725
 16      -0.362106998479
 17       0.295785770262
 18      -0.440095956134
 19      -0.253415333056
 20       0.067506008543
 21       0.214018581960
 22      -0.193757435373
 23      -0.557440569331
 24       0.065406214451
 25      -0.125363815518
 26      -0.397446920535
 27      -0.536932608378
 28      -0.036312677028
 29       0.231362477703
 30       0.172081047383
 31       0.545555736436
 32      -0.007688758125
 33       0.413275721278
 34      -0.400655611426
 Ene= 2.56826600376607E+00
 Spin= Alpha
 Occup= 0.000000
  1       0.000011263449
  2      -0.000075941603
  3      -0.000078428829
  4       0.000047585471
  5       0.000061294113
  6       0.000022583996
  7       0.000017448227
  8       0.000033216552
  9      -0.000002923421
 10      -0.305309468830
 11      -0.451154838740
 12      -0.564487164267
 13      -0.176234963144
 14      -0.826090174611
 15      -0.000004823614
 16       0.000001619064
 17       0.000004366655
 18       0.410317599834
 19       0.224096885905
 20       0.000029899688
 21       0.000016802384
 22      -0.064625416028
 23      -0.441920737337
 24      -0.138278276835
 25       0.000000048438
 26       0.000006422797
 27       0.409916350429
 28      -0.039308592050
 29       0.221357147410
 30       0.000085090678
 31       0.000049989977
 32      -0.345258259701
 33       0.070977268852
 34      -0.307154096532
 Ene= 2.56827516917442E+00
 Spin= Alpha
 Occup= 0.000000
  1      -0.000017538504
  2       0.000119196401
  3       0.000085828745
  4       0.000005241175
  5      -0.000025767267
  6       0.000018009545
  7      -0.000003576385
  8      -0.000008535347
  9       0.000011876541
 10      -0.488894969867
 11       0.826057581131
 12       0.352557931623
 13      -0.282258352257
 14      -0.451145441288
 15      -0.000043109863
 16      -0.000022424149
 17       0.000059879574
 18       0.224093569910
 19      -0.410318140029
 20      -0.000013117860
 21      -0.000011044656
 22       0.436026097725
 23      -0.011072834158
 24      -0.168368449751
 25      -0.000041369903
 26      -0.000022611652
 27      -0.162048595090
 28      -0.370714013542
 29       0.234276698122
 30      -0.000055284185
 31      -0.000031363658
 32      -0.274013793679
 33       0.157674425178
 34       0.344442479904
 Ene= 2.67048192137760E+00
 Spin= Alpha
 Occup= 0.000000
  1       0.319700617537
  2      -2.128639225051
  3      -1.005837940684
  4       0.000001235727
  5       0.000017386160
  6      -0.000015021790
  7      -0.000005229164
  8      -0.000015565119
  9      -0.000024956955
 10       0.000013670404
 11       0.000096376231
 12       0.000026479592
 13       0.000003072862
 14      -0.000005088894
 15       0.637244275224
 16       0.270621556133
 17      -0.818820094488
 18       0.000005709936
 19      -0.000035148180
 20       0.637213321670
 21       0.270602419435
 22       0.272953328829
 23      -0.266648254733
 24       0.724432984923
 25       0.637251309642
 26       0.270633830184
 27       0.272917986432
 28      -0.494090363307
 29      -0.593189221877