[Molden Format]
[N_Atoms]
                     6
[Atoms] (AU)
C1          1      6          -0.00000769     -0.00004439      0.06656341
N2          2      7           0.00000780     -0.00001349      2.47204541
H3          3      1           1.77785518      0.00408519     -0.94410761
H4          4      1           1.62628562     -0.00442780      3.47313091
H5          5      1          -1.62625712      0.00444717      3.47315168
H6          6      1          -1.77788379     -0.00404668     -0.94408479
[5D]
[Charge] (Mulliken)
  0.000000000000000E+000
  0.000000000000000E+000
  0.000000000000000E+000
  0.000000000000000E+000
  0.000000000000000E+000
  0.000000000000000E+000
[GTO] (AU)
   1
   s   9
  0.666500000E+04  0.692000179E-03
  0.100000000E+04  0.532900138E-02
  0.228000000E+03  0.270770070E-01
  0.647100000E+02  0.101718026E+00
  0.210600000E+02  0.274740071E+00
  0.749500000E+01  0.448564116E+00
  0.279700000E+01  0.285074074E+00
  0.521500000E+00  0.152040039E-01
  0.159600000E+00 -0.319100083E-02
   s   9
  0.666500000E+04 -0.146000064E-03
  0.100000000E+04 -0.115400051E-02
  0.228000000E+03 -0.572500252E-02
  0.647100000E+02 -0.233120103E-01
  0.210600000E+02 -0.639550281E-01
  0.749500000E+01 -0.149981066E+00
  0.279700000E+01 -0.127262056E+00
  0.521500000E+00  0.544529240E+00
  0.159600000E+00  0.580496255E+00
   s   1
  0.159600000E+00  0.100000000E+01
   p   4
  0.943900000E+01  0.381090213E-01
  0.200200000E+01  0.209480117E+00
  0.545600000E+00  0.508557284E+00
  0.151700000E+00  0.468842262E+00
   p   1
  0.151700000E+00  0.100000000E+01
   d   1
  0.550000000E+00  0.100000000E+01
 
   2
   s   9
  0.904600000E+04  0.700000035E-03
  0.135700000E+04  0.538900027E-02
  0.309300000E+03  0.274060014E-01
  0.877300000E+02  0.103207005E+00
  0.285600000E+02  0.278723014E+00
  0.102100000E+02  0.448540022E+00
  0.383800000E+01  0.278238014E+00
  0.746600000E+00  0.154400008E-01
  0.224800000E+00 -0.286400014E-02
   s   9
  0.904600000E+04 -0.152999989E-03
  0.135700000E+04 -0.120799991E-02
  0.309300000E+03 -0.599199955E-02
  0.877300000E+02 -0.245439982E-01
  0.285600000E+02 -0.674589950E-01
  0.102100000E+02 -0.158077988E+00
  0.383800000E+01 -0.121830991E+00
  0.746600000E+00  0.549002959E+00
  0.224800000E+00  0.578814957E+00
   s   1
  0.224800000E+00  0.100000000E+01
   p   4
  0.135500000E+02  0.399190123E-01
  0.291700000E+01  0.217169067E+00
  0.797300000E+00  0.510319158E+00
  0.218500000E+00  0.462214143E+00
   p   1
  0.218500000E+00  0.100000000E+01
   d   1
  0.817000000E+00  0.100000000E+01
 
   3
   s   4
  0.130100000E+02  0.196849900E-01
  0.196200000E+01  0.137976930E+00
  0.444600000E+00  0.478147757E+00
  0.122000000E+00  0.501239745E+00
   s   1
  0.122000000E+00  0.100000000E+01
   p   1
  0.727000000E+00  0.100000000E+01
 
   4
   s   4
  0.130100000E+02  0.196849900E-01
  0.196200000E+01  0.137976930E+00
  0.444600000E+00  0.478147757E+00
  0.122000000E+00  0.501239745E+00
   s   1
  0.122000000E+00  0.100000000E+01
   p   1
  0.727000000E+00  0.100000000E+01
 
   5
   s   4
  0.130100000E+02  0.196849900E-01
  0.196200000E+01  0.137976930E+00
  0.444600000E+00  0.478147757E+00
  0.122000000E+00  0.501239745E+00
   s   1
  0.122000000E+00  0.100000000E+01
   p   1
  0.727000000E+00  0.100000000E+01
 
   6
   s   4
  0.130100000E+02  0.196849900E-01
  0.196200000E+01  0.137976930E+00
  0.444600000E+00  0.478147757E+00
  0.122000000E+00  0.501239745E+00
   s   1
  0.122000000E+00  0.100000000E+01
   p   1
  0.727000000E+00  0.100000000E+01
 
[MO]
Sym=     1a  
Ene=   -15.9070
Spin= Alpha
Occup=    2.00000
   1         0.00003563
   2        -0.00021346
   3         0.00294729
   4        -0.00000000
   5         0.00000001
   6        -0.00044448
   7         0.00000001
   8         0.00000003
   9         0.00174154
  10        -0.00055988
  11        -0.00000001
  12        -0.00000001
  13         0.00013098
  14         0.00000126
  15         1.00123167
  16         0.00660676
  17        -0.00734799
  18        -0.00000001
  19         0.00000001
  20        -0.00079952
  21         0.00000001
  22         0.00000001
  23         0.00219430
  24         0.00019242
  25         0.00000000
  26         0.00000001
  27         0.00028940
  28        -0.00000174
  29        -0.00034536
  30         0.00024851
  31        -0.00006041
  32        -0.00000037
  33        -0.00016549
  34        -0.00033270
  35         0.00041354
  36         0.00056154
  37        -0.00000147
  38         0.00015070
  39        -0.00033270
  40         0.00041354
  41        -0.00056154
  42         0.00000149
  43         0.00015070
  44        -0.00034536
  45         0.00024851
  46         0.00006041
  47         0.00000037
  48        -0.00016549
Sym=     2a  
Ene=   -11.5880
Spin= Alpha
Occup=    2.00000
   1         1.00135116
   2         0.00823824
   3        -0.00463172
   4         0.00000000
   5         0.00000012
   6         0.00169027
   7         0.00000001
   8        -0.00000010
   9         0.00097870
  10         0.00072523
  11         0.00000000
  12        -0.00000000
  13         0.00068889
  14         0.00000254
  15        -0.00015954
  16         0.00063542
  17        -0.00368176
  18        -0.00000000
  19        -0.00000002
  20         0.00034677
  21         0.00000002
  22         0.00000005
  23         0.00228791
  24        -0.00030937
  25        -0.00000000
  26        -0.00000002
  27        -0.00039513
  28         0.00000106
  29        -0.00058602
  30         0.00167820
  31         0.00029153
  32         0.00000079
  33        -0.00028062
  34         0.00061385
  35        -0.00046138
  36        -0.00005638
  37         0.00000027
  38        -0.00045537
  39         0.00061385
  40        -0.00046138
  41         0.00005638
  42        -0.00000029
  43        -0.00045537
  44        -0.00058602
  45         0.00167820
  46        -0.00029154
  47        -0.00000074
  48        -0.00028061
Sym=     3a  
Ene=    -1.5491
Spin= Alpha
Occup=    2.00000
   1        -0.01406333
   2         0.43067477
   3        -0.16725708
   4         0.00000076
   5         0.00000459
   6         0.16998614
   7        -0.00000048
   8        -0.00000178
   9        -0.08382355
  10         0.02829250
  11         0.00000026
  12         0.00000075
  13        -0.00118977
  14        -0.00001634
  15        -0.01479762
  16         0.77881291
  17        -0.15522801
  18        -0.00000139
  19        -0.00000058
  20        -0.06006094
  21         0.00000017
  22        -0.00000061
  23        -0.00380961
  24         0.01192792
  25         0.00000012
  26         0.00000025
  27         0.00291942
  28        -0.00000921
  29         0.11662438
  30        -0.05943377
  31        -0.00931242
  32        -0.00002307
  33         0.00881662
  34         0.25943274
  35        -0.12555358
  36        -0.02749724
  37         0.00007522
  38        -0.01523404
  39         0.25943414
  40        -0.12555420
  41         0.02749711
  42        -0.00007591
  43        -0.01523448
  44         0.11662470
  45        -0.05943399
  46         0.00931256
  47         0.00002252
  48         0.00881651
Sym=     4a  
Ene=    -1.1670
Spin= Alpha
Occup=    2.00000
   1         0.00882229
   2        -0.70020176
   3         0.16647131
   4         0.00000030
   5        -0.00000831
   6         0.11769805
   7         0.00000001
   8         0.00000232
   9        -0.01220914
  10         0.00507530
  11         0.00000022
  12         0.00000057
  13        -0.00754214
  14        -0.00002325
  15        -0.00160870
  16         0.32707396
  17        -0.04570735
  18         0.00000432
  19         0.00000822
  20         0.33726858
  21        -0.00000086
  22        -0.00000036
  23        -0.06844033
  24        -0.01546929
  25        -0.00000014
  26        -0.00000003
  27         0.00337787
  28        -0.00002172
  29        -0.34570589
  30         0.16329212
  31         0.02412356
  32         0.00005531
  33        -0.01205341
  34         0.26701222
  35        -0.12509657
  36        -0.02383831
  37         0.00006546
  38        -0.00863794
  39         0.26700905
  40        -0.12509531
  41         0.02383807
  42        -0.00006566
  43        -0.00863808
  44        -0.34570485
  45         0.16329186
  46        -0.02412372
  47        -0.00005396
  48        -0.01205306
Sym=     5a  
Ene=    -1.0281
Spin= Alpha
Occup=    2.00000
   1        -0.00000010
   2         0.00000251
   3         0.00000053
   4         0.23872925
   5        -0.00069715
   6        -0.00000843
   7        -0.04248485
   8         0.00017214
   9         0.00000235
  10        -0.00000078
  11         0.03491354
  12        -0.00012599
  13         0.00000036
  14         0.00000101
  15        -0.00000003
  16        -0.00000085
  17         0.00000020
  18         0.68484409
  19        -0.00263604
  20         0.00000165
  21        -0.13471310
  22         0.00029687
  23        -0.00000016
  24        -0.00000019
  25         0.00473509
  26         0.00000931
  27         0.00000011
  28         0.00000034
  29         0.12430090
  30        -0.07629443
  31        -0.01042686
  32        -0.00005179
  33         0.00378996
  34         0.49814324
  35        -0.21050605
  36        -0.02287842
  37         0.00004446
  38        -0.02749887
  39        -0.49813870
  40         0.21050432
  41        -0.02287772
  42         0.00004559
  43         0.02749924
  44        -0.12429250
  45         0.07629097
  46        -0.01042640
  47        -0.00005052
  48        -0.00378973
Sym=     6a  
Ene=     0.0000
Spin= Alpha
Occup=    1.74983
   1        -0.00684113
   2         0.00568333
   3         0.09859388
   4        -0.00018675
   5         0.00000322
   6        -0.63865464
   7         0.00003979
   8        -0.00000003
   9         0.20167900
  10        -0.03705775
  11         0.00000641
  12        -0.00000195
  13         0.01255667
  14         0.00004504
  15        -0.00178837
  16        -0.10733255
  17         0.02945776
  18         0.00005978
  19         0.00000323
  20         0.62684099
  21        -0.00000985
  22        -0.00000302
  23        -0.11497242
  24        -0.01994715
  25         0.00000649
  26        -0.00000049
  27         0.00780527
  28        -0.00003479
  29         0.29763785
  30        -0.11632793
  31        -0.01721677
  32        -0.00004397
  33         0.00039687
  34         0.24942360
  35        -0.09583376
  36        -0.01826496
  37         0.00005511
  38         0.00303804
  39         0.24930055
  40        -0.09579947
  41         0.01826207
  42        -0.00005551
  43         0.00304198
  44         0.29793802
  45        -0.11644185
  46         0.01722566
  47         0.00004287
  48         0.00040721
Sym=     7a  
Ene=     0.0000
Spin= Alpha
Occup=    1.72209
   1        -0.00000016
   2        -0.00000419
   3        -0.00000059
   4        -0.00425911
   5         0.32616430
   6        -0.00000096
   7         0.00065703
   8        -0.07803213
   9         0.00000151
  10        -0.00000128
  11         0.00037953
  12         0.04387655
  13        -0.00000123
  14         0.00000023
  15        -0.00000005
  16        -0.00000203
  17        -0.00000061
  18         0.00461455
  19         0.84111691
  20        -0.00001355
  21        -0.00027596
  22         0.02821130
  23        -0.00000061
  24         0.00000036
  25         0.00018442
  26        -0.01966762
  27         0.00000008
  28        -0.00000014
  29        -0.00363049
  30         0.00119676
  31         0.00004405
  32         0.00807536
  33        -0.00011676
  34         0.00231148
  35        -0.00070750
  36        -0.00000280
  37         0.02187035
  38        -0.00008439
  39        -0.00230871
  40         0.00070618
  41        -0.00000242
  42         0.02187041
  43         0.00008351
  44         0.00363589
  45        -0.00120079
  46         0.00004543
  47         0.00807538
  48         0.00011710
Sym=     8a  
Ene=     0.0000
Spin= Alpha
Occup=    1.74928
   1         0.00000182
   2        -0.00000047
   3        -0.00002688
   4        -0.66814213
   5        -0.00352232
   6         0.00017617
   7         0.14095173
   8         0.00080980
   9        -0.00005520
  10         0.00000968
  11         0.02698204
  12        -0.00025108
  13        -0.00000317
  14        -0.00000200
  15         0.00000049
  16         0.00002853
  17        -0.00000784
  18         0.23440249
  19        -0.00555396
  20        -0.00017087
  21        -0.03926567
  22         0.00021523
  23         0.00003137
  24         0.00000512
  25         0.02531210
  26         0.00013533
  27        -0.00000195
  28         0.00000034
  29        -0.55195759
  30         0.20827684
  31         0.01605522
  32        -0.00000523
  33        -0.01946340
  34         0.24869355
  35        -0.07221581
  36        -0.00639603
  37        -0.00009721
  38        -0.00881759
  39        -0.24882893
  40         0.07226789
  41        -0.00640584
  42        -0.00009672
  43         0.00881606
  44         0.55179838
  45        -0.20821468
  46         0.01604627
  47        -0.00000743
  48         0.01946302
Sym=     9a  
Ene=     0.0000
Spin= Alpha
Occup=    0.77880
   1         0.00000064
   2         0.00002936
   3         0.00001429
   4         0.00223403
   5        -0.92824180
   6        -0.00000920
   7         0.00047183
   8        -0.12758079
   9        -0.00000003
  10        -0.00000119
  11         0.00013968
  12         0.01745950
  13        -0.00000108
  14         0.00000011
  15        -0.00000020
  16        -0.00000782
  17        -0.00000147
  18         0.00056256
  19         0.41410394
  20         0.00000104
  21         0.00042077
  22         0.20079147
  23        -0.00000283
  24        -0.00000050
  25        -0.00018667
  26         0.02182805
  27        -0.00000038
  28         0.00000014
  29        -0.00069656
  30        -0.00023468
  31         0.00005150
  32        -0.02404175
  33         0.00000655
  34        -0.00136322
  35         0.00003392
  36         0.00004607
  37         0.01376880
  38        -0.00000812
  39         0.00136996
  40        -0.00003286
  41         0.00004636
  42         0.01376879
  43         0.00000806
  44         0.00066120
  45         0.00023966
  46         0.00004988
  47        -0.02404177
  48        -0.00000770
Sym=    10a  
Ene=    -0.0458
Spin= Alpha
Occup=    0.00000
   1         0.01515098
   2        -0.11115793
   3        -0.81424743
   4         0.00000168
   5        -0.00000575
   6         0.18992598
   7         0.00000251
   8        -0.00001428
   9         0.26344605
  10        -0.01007443
  11        -0.00000008
  12         0.00000050
  13        -0.00143993
  14        -0.00007445
  15         0.03204139
  16        -0.24559437
  17        -0.99462044
  18        -0.00000059
  19        -0.00000352
  20        -0.18484601
  21        -0.00000132
  22        -0.00000084
  23        -0.29277395
  24        -0.00371143
  25        -0.00000004
  26         0.00000008
  27        -0.00505911
  28         0.00005200
  29         0.03174677
  30         0.55266047
  31         0.00303159
  32        -0.00000914
  33         0.01101708
  34         0.14971934
  35         0.74378269
  36        -0.00824319
  37         0.00003854
  38        -0.00720068
  39         0.14971978
  40         0.74378592
  41         0.00824307
  42        -0.00003897
  43        -0.00720077
  44         0.03174708
  45         0.55266303
  46        -0.00303146
  47         0.00000935
  48         0.01101713
Sym=    11a  
Ene=    -0.0138
Spin= Alpha
Occup=    0.00000
   1        -0.00000001
   2         0.00000024
   3         0.00000119
   4         0.32875434
   5         0.00102950
   6        -0.00000237
   7         0.60187179
   8         0.00242685
   9        -0.00000428
  10        -0.00000025
  11         0.02353192
  12        -0.00003182
  13         0.00000014
  14         0.00000064
  15        -0.00000005
  16         0.00000042
  17         0.00000155
  18         0.33380681
  19        -0.00139509
  20        -0.00000183
  21         0.30894419
  22        -0.00200724
  23        -0.00000152
  24         0.00000029
  25        -0.02541788
  26         0.00000125
  27        -0.00000016
  28        -0.00000072
  29        -0.11072807
  30        -0.95396076
  31         0.00134003
  32         0.00004173
  33        -0.00132795
  34        -0.16291666
  35        -0.90856530
  36         0.00037965
  37        -0.00001661
  38        -0.00253195
  39         0.16291627
  40         0.90856286
  41         0.00037963
  42        -0.00001584
  43         0.00253200
  44         0.11072805
  45         0.95395898
  46         0.00134005
  47         0.00004225
  48         0.00132789
Sym=    12a  
Ene=     0.0025
Spin= Alpha
Occup=    0.00000
   1         0.03120480
   2        -0.33111925
   3        -1.47720189
   4         0.00000120
   5        -0.00001983
   6         0.14239768
   7         0.00000323
   8        -0.00003375
   9         0.40881778
  10         0.01092334
  11         0.00000016
  12         0.00000086
  13        -0.00882167
  14         0.00001059
  15        -0.01671123
  16         0.18303216
  17         0.57038610
  18         0.00000008
  19         0.00000660
  20         0.04030023
  21         0.00000016
  22         0.00001311
  23         0.07710030
  24        -0.00938597
  25        -0.00000018
  26         0.00000085
  27         0.00863424
  28         0.00001734
  29         0.11759469
  30         1.18973940
  31        -0.00725836
  32        -0.00000498
  33         0.00060212
  34        -0.08211895
  35        -0.52639503
  36         0.01094662
  37         0.00001106
  38        -0.00583159
  39        -0.08211898
  40        -0.52639613
  41        -0.01094670
  42        -0.00001078
  43        -0.00583146
  44         0.11759465
  45         1.18974113
  46         0.00725835
  47         0.00000345
  48         0.00060202
Sym=    13a  
Ene=     0.0838
Spin= Alpha
Occup=    0.00000
   1        -0.00000000
   2         0.00000014
   3         0.00000036
   4         0.37128022
   5         0.00153371
   6        -0.00000249
   7         1.12806302
   8         0.00176030
   9        -0.00000767
  10        -0.00000006
  11         0.00531046
  12         0.00004456
  13         0.00000003
  14         0.00000070
  15         0.00000000
  16        -0.00000014
  17        -0.00000023
  18        -0.30711035
  19         0.00064035
  20         0.00000182
  21        -0.67262462
  22         0.00056650
  23         0.00000413
  24         0.00000029
  25        -0.02553844
  26        -0.00003120
  27        -0.00000016
  28        -0.00000135
  29        -0.01836926
  30        -1.61581568
  31         0.00074323
  32         0.00001226
  33        -0.00005986
  34         0.01880132
  35         1.06485770
  36        -0.01201369
  37         0.00000870
  38        -0.01252363
  39        -0.01880104
  40        -1.06485688
  41        -0.01201350
  42         0.00001035
  43         0.01252377
  44         0.01836913
  45         1.61581461
  46         0.00074322
  47         0.00001373
  48         0.00005983
Sym=    14a  
Ene=     0.1746
Spin= Alpha
Occup=    0.00000
   1         0.06577577
   2         0.10378116
   3        -2.17463250
   4        -0.00000040
   5         0.00000543
   6        -0.04257058
   7        -0.00001620
   8        -0.00002114
   9        -2.51152840
  10        -0.01096402
  11         0.00000012
  12        -0.00000126
  13        -0.03881706
  14        -0.00022229
  15        -0.05925425
  16         0.00937326
  17         2.02546699
  18        -0.00000239
  19        -0.00000563
  20        -0.37423893
  21        -0.00000769
  22        -0.00002154
  23        -1.22558759
  24         0.03787781
  25         0.00000035
  26         0.00000040
  27         0.01276859
  28        -0.00010648
  29        -0.13656777
  30        -0.19175297
  31        -0.02313065
  32        -0.00007951
  33        -0.00689120
  34         0.00588398
  35         0.63592874
  36        -0.00110168
  37        -0.00002594
  38         0.02687144
  39         0.00588392
  40         0.63592933
  41         0.00110203
  42         0.00002668
  43         0.02687141
  44        -0.13656755
  45        -0.19175372
  46         0.02313061
  47         0.00007808
  48        -0.00689154
Sym=    15a  
Ene=     0.3579
Spin= Alpha
Occup=    0.00000
   1        -0.00000016
   2        -0.00000038
   3         0.00000132
   4         0.11507170
   5         0.00093634
   6        -0.00000086
   7        -0.66410846
   8        -0.00403218
   9         0.00000421
  10         0.00000259
  11        -0.23317030
  12         0.00010766
  13        -0.00000184
  14         0.00001022
  15        -0.00000002
  16        -0.00000002
  17        -0.00000012
  18        -0.10504457
  19         0.00185734
  20         0.00000101
  21         0.08187207
  22         0.00045217
  23        -0.00000023
  24        -0.00000123
  25         0.11111919
  26        -0.00022357
  27         0.00000061
  28         0.00000330
  29         0.92599589
  30        -0.69806220
  31         0.02771131
  32        -0.00002010
  33        -0.06655566
  34         0.84689117
  35        -0.80142073
  36         0.02463126
  37         0.00004664
  38         0.10354727
  39        -0.84689312
  40         0.80142209
  41         0.02463011
  42         0.00004195
  43        -0.10354762
  44        -0.92599876
  45         0.69806426
  46         0.02771241
  47        -0.00002651
  48         0.06655536
Sym=    16a  
Ene=     0.4213
Spin= Alpha
Occup=    0.00000
   1        -0.12647743
   2        -0.26405669
   3         1.22004636
   4         0.00000142
   5        -0.00055011
   6         0.06754154
   7        -0.00000031
   8         0.00075536
   9         0.08119689
  10        -0.01083207
  11         0.00000172
  12        -0.00002098
  13        -0.27400881
  14        -0.00098618
  15        -0.02783354
  16        -0.16075835
  17        -0.15273222
  18         0.00000099
  19        -0.00008516
  20         0.23346182
  21         0.00000333
  22        -0.00001092
  23         0.41904805
  24         0.00827928
  25         0.00000042
  26         0.00002363
  27        -0.06838348
  28         0.00017373
  29        -1.21817914
  30         0.93940427
  31        -0.10159224
  32        -0.00022535
  33         0.01825644
  34        -0.51003397
  35         0.21965135
  36        -0.04928401
  37         0.00004143
  38         0.01804676
  39        -0.51003215
  40         0.21964845
  41         0.04928430
  42        -0.00002405
  43         0.01804611
  44        -1.21817769
  45         0.93940415
  46         0.10159263
  47         0.00020080
  48         0.01825499
Sym=    17a  
Ene=     0.4245
Spin= Alpha
Occup=    0.00000
   1        -0.00005776
   2        -0.00014685
   3         0.00048626
   4        -0.00314213
   5         1.39857290
   6         0.00001416
   7         0.00462015
   8        -1.81401920
   9         0.00006093
  10        -0.00000558
  11         0.00056508
  12         0.06197552
  13        -0.00011318
  14        -0.00000003
  15        -0.00001224
  16        -0.00006447
  17        -0.00005643
  18         0.00156841
  19         0.19467136
  20         0.00009775
  21        -0.00214307
  22         0.02250138
  23         0.00015586
  24         0.00000391
  25        -0.00010600
  26        -0.06558423
  27        -0.00002839
  28        -0.00000034
  29        -0.00150206
  30         0.00190232
  31        -0.00028821
  32         0.03532575
  33         0.00006409
  34        -0.00049892
  35        -0.00090367
  36        -0.00015614
  37        -0.02446266
  38        -0.00038283
  39         0.00006131
  40         0.00110273
  41        -0.00011255
  42        -0.02446270
  43         0.00039483
  44         0.00054862
  45        -0.00111764
  46        -0.00019750
  47         0.03532594
  48        -0.00004144
Sym=    18a  
Ene=     0.4675
Spin= Alpha
Occup=    0.00000
   1         0.19211443
   2         0.83846249
   3        -0.31228603
   4         0.00000679
   5         0.00000701
   6         1.03638985
   7        -0.00000547
   8        -0.00001283
   9        -0.82839695
  10        -0.08393837
  11        -0.00000137
  12        -0.00000465
  13         0.07229311
  14         0.00090701
  15         0.02542113
  16         0.06557008
  17        -0.01516165
  18         0.00000038
  19         0.00000696
  20         0.08395710
  21         0.00000530
  22         0.00001288
  23         0.80922560
  24         0.11883067
  25         0.00000171
  26         0.00000221
  27        -0.06145980
  28         0.00041838
  29         0.37357412
  30        -0.36631546
  31         0.08606775
  32         0.00022194
  33         0.00811219
  34        -0.77128723
  35         0.52262142
  36        -0.10729158
  37         0.00033881
  38         0.10821823
  39        -0.77128717
  40         0.52262144
  41         0.10729309
  42        -0.00033445
  43         0.10821694
  44         0.37357437
  45        -0.36631578
  46        -0.08606770
  47        -0.00021940
  48         0.00811326
Sym=    19a  
Ene=     0.5100
Spin= Alpha
Occup=    0.00000
   1        -0.11830277
   2        -0.77657274
   3         0.39135495
   4        -0.00000416
   5        -0.00003002
   6        -0.71527638
   7         0.00000303
   8         0.00002498
   9         0.53044635
  10         0.13344949
  11         0.00000144
  12         0.00000072
  13         0.02617383
  14         0.00058570
  15         0.05259810
  16         0.63900834
  17        -0.55397053
  18        -0.00000055
  19         0.00000399
  20        -0.02326010
  21        -0.00000126
  22        -0.00000460
  23        -0.27758394
  24        -0.08821504
  25         0.00000005
  26        -0.00000379
  27        -0.16319759
  28         0.00094263
  29         0.36798982
  30        -0.37034447
  31         0.00661642
  32         0.00000648
  33        -0.03164604
  34        -1.13011289
  35         1.14310330
  36        -0.15219826
  37         0.00043271
  38        -0.09494542
  39        -1.13011305
  40         1.14310399
  41         0.15219721
  42        -0.00043346
  43        -0.09494747
  44         0.36799089
  45        -0.37034584
  46        -0.00661689
  47        -0.00001154
  48        -0.03164613
Sym=    20a  
Ene=     0.5924
Spin= Alpha
Occup=    0.00000
   1         0.00000009
   2         0.00000038
   3        -0.00000096
   4        -1.30969860
   5        -0.00192119
   6         0.00000834
   7         3.31355327
   8         0.00524295
   9        -0.00002106
  10         0.00000271
  11        -0.24481348
  12        -0.00082756
  13        -0.00000155
  14         0.00000108
  15         0.00000004
  16         0.00000029
  17        -0.00000026
  18        -0.11681761
  19        -0.00260221
  20         0.00000094
  21        -0.18101407
  22         0.00261448
  23         0.00000086
  24        -0.00000056
  25         0.05126748
  26         0.00007378
  27         0.00000029
  28        -0.00000250
  29        -0.01514887
  30        -1.77410530
  31         0.18325223
  32         0.00040074
  33        -0.09708115
  34         0.13379880
  35        -0.39382121
  36         0.03575482
  37        -0.00007056
  38        -0.02041174
  39        -0.13379941
  40         0.39382181
  41         0.03575525
  42        -0.00006444
  43         0.02041126
  44         0.01514923
  45         1.77410550
  46         0.18325352
  47         0.00039836
  48         0.09707886
Sym=    21a  
Ene=     0.7045
Spin= Alpha
Occup=    0.00000
   1        -0.00000006
   2        -0.00000015
   3         0.00000060
   4         0.23932137
   5         0.00203305
   6        -0.00000118
   7        -0.05550041
   8        -0.00338402
   9         0.00000012
  10        -0.00000019
  11         0.00719806
  12         0.00060224
  13         0.00000019
  14        -0.00003347
  15         0.00000002
  16        -0.00000011
  17        -0.00000023
  18        -1.04666784
  19        -0.00475811
  20         0.00000702
  21         1.58597873
  22         0.00485597
  23        -0.00001038
  24        -0.00000179
  25         0.16658473
  26        -0.00070662
  27         0.00000118
  28         0.00000079
  29        -0.71846121
  30         0.72162719
  31        -0.00699585
  32        -0.00026424
  33         0.10811348
  34         0.45845660
  35        -1.33889194
  36         0.21386172
  37        -0.00091407
  38         0.17783592
  39        -0.45845555
  40         1.33889109
  41         0.21385940
  42        -0.00091898
  43        -0.17783870
  44         0.71846083
  45        -0.72162713
  46        -0.00699735
  47        -0.00024067
  48        -0.10811333
Sym=    22a  
Ene=     0.7237
Spin= Alpha
Occup=    0.00000
   1        -0.00004066
   2        -0.00018383
   3         0.00029206
   4         0.00212268
   5         0.24840324
   6         0.00002721
   7        -0.00804292
   8        -0.72124217
   9        -0.00006825
  10        -0.00000433
  11        -0.00029599
  12        -0.17276750
  13         0.00001089
  14        -0.00000088
  15        -0.00000335
  16        -0.00001432
  17         0.00002186
  18         0.00205231
  19        -1.40454563
  20         0.00002990
  21        -0.00382016
  22         1.97264395
  23        -0.00004112
  24        -0.00000299
  25        -0.00076953
  26         0.03331915
  27        -0.00000086
  28         0.00000022
  29         0.00265984
  30         0.00148525
  31        -0.00020382
  32        -0.01572310
  33        -0.00008866
  34        -0.00108637
  35         0.00644266
  36        -0.00125349
  37         0.00656583
  38        -0.00076421
  39         0.00108252