# Projected DOS for atomic kind C at iteration step i = 0, E(Fermi) =    -0.162995 a.u.
#     MO Eigenvalue [a.u.]      Occupation                 s                py                pz                px               d-2               d-1                d0               d+1               d+2
       1         -1.035483        2.000000        0.15728028        0.04769343        0.10980728        0.13558007        0.02170941        0.01473791        0.00753437        0.02972090        0.00611646
       2         -1.020065        2.000000        0.15426885        0.14089595        0.06765839        0.07737596        0.03725909        0.01754873        0.01368587        0.00595671        0.00308198
       3         -0.849599        2.000000        0.13377726        0.17266657        0.06960443        0.07602644        0.03650142        0.01256798        0.02288169        0.02568381        0.00854743
       4         -0.841919        2.000000        0.16107711        0.03408384        0.12891062        0.08676658        0.02901173        0.03110296        0.01337350        0.01130175        0.00466291
       5         -0.839136        2.000000        0.14667833        0.03054368        0.08091764        0.03232712        0.00602437        0.00819971        0.01007050        0.01821066        0.00190207
       6         -0.837360        2.000000        0.13517204        0.06714295        0.10067224        0.03722524        0.02233825        0.01710015        0.01303617        0.00722690        0.00271523
       7         -0.817611        2.000000        0.32432210        0.11245993        0.06875781        0.13453148        0.01654610        0.00987317        0.00263972        0.01284963        0.00136079
       8         -0.767237        2.000000        0.34507779        0.10749320        0.13100589        0.09758811        0.00808440        0.00703753        0.00403182        0.00845091        0.00380140
       9         -0.761944        2.000000        0.33084350        0.11462325        0.14501420        0.10622442        0.00836477        0.00699543        0.00419087        0.00894115        0.00417455
      10         -0.710481        2.000000        0.35081256        0.11930907        0.06710927        0.16377267        0.00674482        0.01172365        0.00748980        0.00949166        0.00599641
      11         -0.689903        2.000000        0.33850806        0.11415618        0.14910271        0.09174362        0.01230168        0.01535081        0.01333787        0.01326898        0.00640198
      12         -0.677893        2.000000        0.36922981        0.12041773        0.13967410        0.08696064        0.01509968        0.02021594        0.01709895        0.01430028        0.00625701
      13         -0.671784        2.000000        0.31233057        0.12299988        0.15706355        0.07338011        0.01907238        0.01794127        0.01765962        0.02208316        0.01027640
      14         -0.661361        2.000000        0.30059209        0.08833507        0.11555571        0.07827919        0.01111435        0.01718796        0.01223102        0.02482230        0.01313605
      15         -0.639607        2.000000        0.36706725        0.09291316        0.09617503        0.09494226        0.01322250        0.02090738        0.01699130        0.02467010        0.01363708
      16         -0.597516        2.000000        0.21428193        0.17917543        0.07622957        0.22322699        0.00482106        0.01025032        0.00624480        0.01428966        0.00816944
      17         -0.580324        2.000000        0.21710636        0.16938367        0.14624462        0.14278178        0.00518449        0.00628345        0.00586498        0.00596748        0.00347402
      18         -0.557382        2.000000        0.20908515        0.14369622        0.15985455        0.10350175        0.00351188        0.00286875        0.00368829        0.00432513        0.00135798
      19         -0.550007        2.000000        0.23117928        0.15280519        0.18351127        0.08395043        0.00398159        0.00585462        0.00300534        0.00432719        0.00295084
      20         -0.542680        2.000000        0.18374984        0.15961085        0.26208380        0.07133510        0.00563640        0.00647031        0.00515339        0.00734552        0.00434709
      21         -0.537128        2.000000        0.17780131        0.11167446        0.27870924        0.07938359        0.00815947        0.00524383        0.00794402        0.00385232        0.00105273
      22         -0.502774        2.000000        0.14125812        0.14936538        0.16596266        0.12887340        0.00499479        0.00724270        0.00599735        0.00610833        0.00290551
      23         -0.494109        2.000000        0.09622621        0.12709224        0.18973473        0.11985465        0.00929983        0.00909292        0.00652718        0.00704017        0.00298492
      24         -0.479900        2.000000        0.04399330        0.11782339        0.18188610        0.09139458        0.00920986        0.00900794        0.01014796        0.00421010        0.00156731
      25         -0.471012        2.000000        0.13695662        0.08583776        0.13937812        0.10525965        0.01387169        0.01410529        0.01738633        0.01530827        0.00634146
      26         -0.466518        2.000000        0.08340883        0.16132065        0.16841101        0.04512565        0.00814819        0.01373834        0.00871125        0.00782750        0.00616161
      27         -0.461498        2.000000        0.09038059        0.09065619        0.16267650        0.09730143        0.00782463        0.01119689        0.01005338        0.01265873        0.00510737
      28         -0.450575        2.000000        0.03737344        0.08791345        0.22972000        0.08570075        0.00605675        0.01579946        0.00814531        0.01362147        0.00458845
      29         -0.448889        2.000000        0.04809976        0.26959622        0.11161352        0.10852572        0.01565638        0.01092399        0.01337652        0.00725795        0.00700335
      30         -0.444833        2.000000        0.07961850        0.06887949        0.08792647        0.12694621        0.01289069        0.01357843        0.01295535        0.00858371        0.00456165
      31         -0.426004        2.000000        0.00164369        0.15344054        0.16954109        0.18095451        0.00598794        0.00787991        0.01439709        0.00334979        0.01396867
      32         -0.415951        2.000000        0.00090930        0.19286216        0.07192052        0.24184016        0.00371739        0.00449640        0.00497131        0.00631730        0.02440266
      33         -0.406542        2.000000        0.05304079        0.23148310        0.05632310        0.16748196        0.01145245        0.00989036        0.00978194        0.00715647        0.00316603
      34         -0.397792        2.000000        0.03963762        0.12405866        0.17967442        0.17725691        0.00735288        0.01360374        0.00982300        0.01532218        0.00847699
      35         -0.388975        2.000000        0.06155170        0.10798819        0.30895956        0.14290573        0.00940961        0.00776749        0.02495352        0.01888995        0.00601611
      36         -0.387565        2.000000        0.06353902        0.25975808        0.24652503        0.06905036        0.00285603        0.02792963        0.00587000        0.00999204        0.01360709
      37         -0.378294        2.000000        0.03089778        0.11354811        0.25019824        0.17976388        0.00736993        0.01546887        0.01827004        0.01465392        0.00986271
      38         -0.370827        2.000000        0.02656762        0.20588683        0.26020885        0.09843038        0.00464217        0.01242867        0.01581634        0.01419030        0.00545528
      39         -0.363034        2.000000        0.01326807        0.37789800        0.13100101        0.21062826        0.01061143        0.01292398        0.00928092        0.00583879        0.00474196
      40         -0.359550        2.000000        0.00547607        0.13863389        0.22364261        0.33658101        0.00597419        0.01278929        0.01301212        0.00716005        0.00873616
      41         -0.352731        2.000000        0.00817128        0.19871354        0.26755900        0.26091669        0.01001101        0.00615747        0.00869089        0.01179684        0.02042323
      42         -0.350167        2.000000        0.02735289        0.25495700        0.13262427        0.20003044        0.02109642        0.01493909        0.01990521        0.00758630        0.00494376
      43         -0.345420        2.000000        0.02847362        0.14917965        0.18152690        0.25288581        0.01493559        0.02215630        0.01181469        0.01578614        0.01399968
      44         -0.333924        2.000000        0.01458515        0.15480191        0.24391707        0.17943260        0.01084695        0.01394648        0.01962708        0.02210141        0.02050053
      45         -0.333138        2.000000        0.01016755        0.25655059        0.17554249        0.19497853        0.00413609        0.01473722        0.01202213        0.01888376        0.02155372
      46         -0.326647        2.000000        0.00227177        0.18615591        0.12104879        0.27655368        0.00838845        0.01518759        0.00900674        0.00729100        0.02879340
      47         -0.314952        2.000000        0.01783375        0.22207279        0.13375859        0.09188572        0.00733068        0.02788599        0.01114517        0.01219502        0.01189598
      48         -0.306147        2.000000        0.01293639        0.12466524        0.21928310        0.14112304        0.01442196        0.01634051        0.03330932        0.01560176        0.00840403
      49         -0.300412        2.000000        0.01323789        0.10137729        0.12947516        0.10197492        0.01081129        0.00994448        0.02053462        0.02164264        0.01280635
      50         -0.299163        2.000000        0.00868245        0.09302112        0.12353194        0.12490203        0.00766589        0.01328062        0.02688600        0.00711763        0.02994007
      51         -0.292743        2.000000        0.00210424        0.13302620        0.08043666        0.12909600        0.00943104        0.01830170        0.02094998        0.02438607        0.01816175
      52         -0.275925        2.000000        0.00175929        0.20367682        0.15580837        0.25396388        0.00666655        0.00967810        0.01951884        0.01317141        0.03328143
      53         -0.257437        2.000000        0.00199977        0.15831715        0.09519388        0.19465335        0.00674855        0.00872335        0.01934419        0.01742861        0.04387715
      54         -0.243549        2.000000        0.04915883        0.06815159        0.05465654        0.01548860        0.00766800        0.04084329        0.01155845        0.00193051        0.01236085
      55         -0.235898        2.000000        0.04745080        0.02291673        0.09691529        0.02760200        0.00996643        0.01644936        0.04069302        0.00623359        0.00082931
      56         -0.228470        2.000000        0.00115843        0.13340190        0.09962258        0.20432031        0.01862493        0.00827619        0.04408862        0.01593387        0.01705630
      57         -0.222750        2.000000        0.00058719        0.19353545        0.12261054        0.25837532        0.00705304        0.01913615        0.02022790        0.01491643        0.05505018
      58         -0.216947        2.000000        0.00049654        0.23872893        0.12517889        0.28284733        0.00706648        0.01515047        0.01877969        0.01478057        0.05056884
      59         -0.210674        2.000000        0.00105658        0.18309169        0.16016818        0.29258885        0.01199365        0.01512565        0.02588220        0.00689491        0.04721670
      60         -0.178619        2.000000        0.00133454        0.18667146        0.11647075        0.24232124        0.00648349        0.00977208        0.02425161        0.01546391        0.03725206
      61         -0.162995        2.000000        0.00115606        0.19508300        0.13398672        0.26965174        0.00661970        0.01203403        0.02387872        0.01458765        0.03797312
      62         -0.089374        0.000000        0.00144421        0.17367439        0.12966393        0.20079416        0.00811455        0.02066500        0.02318361        0.01460522        0.06273869
      63         -0.044650        0.000000        0.00199706        0.23603381        0.14694378        0.32371343        0.01566312        0.01853609        0.03386973        0.01801637        0.05477034
      64         -0.028699        0.000000        0.00213500        0.23080710        0.15310910        0.32268166        0.02410443        0.02047978        0.04687380        0.02784986        0.04552859
      65         -0.019602        0.000000        0.00250327        0.22624052        0.13170591        0.29362602        0.01536037        0.02261152        0.03710291        0.02352153        0.05163805
      66         -0.008071        0.000000        0.00675174        0.20553782        0.14647846        0.30284340        0.01403532        0.02234918        0.02700995        0.01405048        0.05598283
      67         -0.002733        0.000000        0.07002517        0.08717503        0.13925091        0.12542256        0.01518220        0.02789787        0.02307027        0.02075811        0.01677734
      68          0.001580        0.000000        0.03042858        0.20493072        0.07194333        0.21979300        0.01561107        0.01931498        0.03321705        0.01036301        0.04986590
      69          0.038841        0.000000        0.02131999        0.16991681        0.09814755        0.15784015        0.01537748        0.01576092        0.03428047        0.02431174        0.03974357
      70          0.049058        0.000000        0.04716417        0.01898921        0.06815164        0.03692074        0.00653828        0.00388249        0.00703243        0.02027866        0.00563755
      71          0.051795        0.000000        0.05189648        0.04901676        0.04339870        0.03884814        0.01018081        0.00675099        0.00533295        0.01047371        0.00355229
      72          0.056615        0.000000        0.02501039        0.12829388        0.13409749        0.12350577        0.02599075        0.02639879        0.02047739        0.03889594        0.01214557
      73          0.069507        0.000000        0.02434041        0.16475018        0.11828867        0.29154965        0.02158236        0.01680134        0.03750916        0.01653798        0.02005186
      74          0.086433        0.000000        0.10330746        0.07295378        0.10493528        0.08159851        0.09241079        0.02942823        0.04228020        0.02277453        0.00928289
      75          0.095913        0.000000        0.16807737        0.04216257        0.06433893        0.06326305        0.02638797        0.03979587        0.03692773        0.04550760        0.01222821
      76          0.098855        0.000000        0.18097090        0.06485839        0.04609324        0.04475819        0.03990778        0.05351606        0.03513147        0.03421339        0.02609406
      77          0.103538        0.000000        0.04295597        0.09558366        0.04779331        0.04369917        0.01254654        0.05323577        0.00733375        0.00888475        0.01150369
      78          0.113967        0.000000        0.15974913        0.10217413        0.12816496        0.14226604        0.03554130        0.02495457        0.02148947        0.03389537        0.01052844
      79          0.116363        0.000000        0.16132201        0.02936172        0.09301153        0.03661144        0.01609464        0.01886915        0.02224813        0.02042941        0.00630990
      80          0.119204        0.000000        0.14511076        0.08684142        0.13510355        0.18038743        0.02455232        0.02479912        0.02834823        0.02295982        0.00964977
      81          0.127427        0.000000        0.15207107        0.19403443        0.07854374        0.15821307        0.02092666        0.02399432        0.01150402        0.02566625        0.02219137
      82          0.132695        0.000000        0.11519461        0.20511027        0.12609097        0.20202768        0.02202266        0.01869301        0.01741262        0.01541177        0.01448962
      83          0.138725        0.000000        0.20278870        0.09156710        0.08222710        0.08586034        0.03309327        0.01969480        0.01601291        0.02441307        0.01630974
      84          0.147229        0.000000        0.12329599        0.08513480        0.08609531        0.02864744        0.00881928        0.03131717        0.00607800        0.00999677        0.01365850
      85          0.159280        0.000000        0.10138190        0.04338444        0.15272306        0.04884748        0.00672259        0.00740638        0.02741452        0.03019972        0.00614261
      86          0.172447        0.000000        0.29291821        0.05844958        0.05069827        0.04869310        0.02298747        0.03841165        0.02928669        0.01420456        0.01104697
      87          0.173881        0.000000        0.17679634        0.08406379        0.04805626        0.06059222        0.02202769        0.02540239        0.02939274        0.04053039        0.00787971
      88          0.178887        0.000000        0.28824302        0.04775235        0.06562043        0.05811807        0.07402924        0.05089149        0.01575456        0.05044549        0.00852962
      89          0.186933        0.000000        0.28231762        0.04444978        0.08614224        0.05409035        0.04670834        0.01854324        0.02997935        0.03894402        0.00662582
      90          0.189173        0.000000        0.34311239        0.05925168        0.07000110        0.04444629        0.07555122        0.03645456        0.01080074        0.03594584        0.01799488
      91          0.193023        0.000000        0.24087013        0.06903731        0.09261702        0.04858851        0.05810166        0.02470927        0.02020410        0.03475666        0.01435553
      92          0.196081        0.000000        0.26437782        0.04401630        0.08683328        0.04106725        0.06334537        0.05388386        0.02681984        0.04365256        0.00740951
      93          0.199922        0.000000        0.20256975        0.05984815        0.08160068        0.04267236        0.06430825        0.04432575        0.02295784        0.04459758        0.01538107
      94          0.218296        0.000000        0.20563796        0.07819636        0.04123569        0.05362769        0.06224114        0.05245934        0.04323495        0.03536168        0.00943733
      95          0.219222        0.000000        0.19070680        0.06304475        0.09444266        0.04517602        0.06716054        0.03168204        0.01862514        0.02356348        0.01039719
      96          0.224787        0.000000        0.20289263        0.08068727        0.07596121        0.04781778        0.06582735        0.04399527        0.04200573        0.04235845        0.00754886
      97          0.232831        0.000000        0.18718498        0.07796575        0.09148840        0.06370573        0.03269213        0.03141410        0.01537643        0.05683787        0.01327869
      98          0.240724        0.000000        0.25565500        0.08772265        0.08332793        0.06304337        0.03565660        0.03148795        0.02228493        0.03727596        0.01687466
      99          0.246548        0.000000        0.20623841        0.05998468        0.11074667        0.05086699        0.05225465        0.04850353        0.04234913        0.03689538        0.01805463
     100          0.252093        0.000000        0.05391926        0.21399636        0.11603625        0.20889498        0.00759625        0.01098911        0.00742534        0.01352917        0.01441748
     101          0.256180        0.000000        0.18407092        0.04724270        0.11949692        0.11177562        0.02039135        0.04252439        0.01689104        0.05047127        0.02853760
     102          0.269715        0.000000        0.03024259        0.19512143        0.11919733        0.24134874        0.00596168        0.00699013        0.00923993        0.01175199        0.00882047
     103          0.273729        0.000000        0.20491550        0.07150153        0.07046792        0.08655976        0.04583958        0.05285656        0.02087486        0.05259505        0.01360551
     104          0.274674        0.000000        0.18112878        0.10254186        0.05378309        0.07278044        0.06789439        0.03184464        0.02829132        0.03017451        0.01414483
     105          0.287499        0.000000        0.03394958        0.07182311        0.10133890        0.17840649        0.03448331        0.02594034        0.03569380        0.01584458        0.01037411
     106          0.290608        0.000000        0.11999685        0.10261584        0.09629160        0.06188224        0.03878300        0.03339953        0.04017354        0.03055209        0.01349442
     107          0.297238        0.000000        0.07841618        0.09060865        0.12081602        0.10509232        0.02223819        0.03526670        0.02337448        0.02232605        0.01444703
     108          0.308260        0.000000        0.14996075        0.06567105        0.10832399        0.08547180        0.06294755        0.04446706        0.03857403        0.03317094        0.00967615
     109          0.311442        0.000000        0.07271893        0.09062286        0.10557690        0.05082710        0.05852331        0.03590113        0.06366572        0.02595692        0.01625868
     110          0.319900        0.000000        0.08282656        0.09980567        0.10309540        0.05407472        0.01819829        0.07390183        0.02972230        0.04256052        0.02013834
     111          0.323500        0.000000        0.06492579        0.06579108        0.10341179        0.08936291        0.06116101        0.05296913        0.02288502        0.06975282        0.01319166
