# Projected DOS for atomic kind O at iteration step i = 0, E(Fermi) =    -0.163461 a.u.
#     MO Eigenvalue [a.u.]      Occupation                 s                py                pz                px               d-2               d-1                d0               d+1               d+2
       1         -1.016200        2.000000        0.34629588        0.00089490        0.01887506        0.00937970        0.00113890        0.00037947        0.00015375        0.00027858        0.00002684
       2         -1.014239        2.000000        0.34765594        0.01905968        0.00478616        0.00517723        0.00072622        0.00051381        0.00000466        0.00074621        0.00000138
       3         -0.848685        2.000000        0.00324111        0.00043249        0.00015296        0.00077419        0.00004534        0.00000020        0.00000578        0.00000796        0.00000001
       4         -0.848415        2.000000        0.00639498        0.00045419        0.00026590        0.00070528        0.00003957        0.00000028        0.00000474        0.00002453        0.00000015
       5         -0.845458        2.000000        0.08458629        0.00371498        0.01643947        0.00139721        0.00017614        0.00017886        0.00239238        0.00087023        0.00002195
       6         -0.838889        2.000000        0.08823734        0.00832166        0.01169309        0.00130887        0.00001803        0.00241692        0.00014600        0.00014239        0.00082593
       7         -0.816462        2.000000        0.00100709        0.00430482        0.00302283        0.00848569        0.00009351        0.00032699        0.00017441        0.00069012        0.00019137
       8         -0.764325        2.000000        0.00247839        0.00679861        0.01534488        0.01961212        0.00154060        0.00114946        0.00108323        0.00007834        0.00018297
       9         -0.757731        2.000000        0.00516979        0.02049766        0.00516997        0.01012373        0.00164386        0.00072597        0.00135153        0.00013273        0.00009698
      10         -0.707599        2.000000        0.00161026        0.00927628        0.01322784        0.02210783        0.00069329        0.00119377        0.00088537        0.00162734        0.00041914
      11         -0.682970        2.000000        0.00098390        0.02075487        0.01444077        0.02588407        0.00034150        0.00081844        0.00039741        0.00017821        0.00010128
      12         -0.674276        2.000000        0.01076644        0.00727047        0.00502021        0.00767084        0.00069832        0.00024498        0.00021749        0.00036331        0.00016561
      13         -0.670711        2.000000        0.00962770        0.00020728        0.00065349        0.00060493        0.00014853        0.00028229        0.00008708        0.00103395        0.00028858
      14         -0.661952        2.000000        0.00331978        0.01142021        0.00867684        0.01367559        0.00221008        0.00119005        0.00140620        0.00028398        0.00015510
      15         -0.639458        2.000000        0.00584356        0.01008338        0.00386268        0.00721167        0.00142190        0.00064201        0.00095634        0.00030885        0.00020945
      16         -0.594933        2.000000        0.00445888        0.00954780        0.01145149        0.01477378        0.00043181        0.00086152        0.00057455        0.00131270        0.00036368
      17         -0.576406        2.000000        0.00041353        0.05265788        0.03945554        0.06031991        0.00079020        0.00135424        0.00101899        0.00038663        0.00013239
      18         -0.556992        2.000000        0.00957112        0.02450490        0.03283692        0.04583195        0.00076967        0.00037275        0.00040668        0.00055488        0.00039454
      19         -0.548654        2.000000        0.00296057        0.01444595        0.01075814        0.00337400        0.00058394        0.00021307        0.00047705        0.00047895        0.00014121
      20         -0.539823        2.000000        0.01696598        0.01600184        0.03609616        0.00059645        0.00021586        0.00022308        0.00005600        0.00047916        0.00004210
      21         -0.537035        2.000000        0.03354725        0.00721366        0.02706684        0.00150510        0.00059446        0.00003918        0.00000092        0.00026488        0.00001168
      22         -0.500961        2.000000        0.00211879        0.02329456        0.05229982        0.03377128        0.00025136        0.00050036        0.00075749        0.00007128        0.00012106
      23         -0.494446        2.000000        0.00307226        0.01403941        0.04811701        0.00616645        0.00055150        0.00092358        0.00047193        0.00148982        0.00084959
      24         -0.483157        2.000000        0.01328961        0.03211665        0.01678527        0.02260991        0.00057102        0.00038241        0.00045546        0.00088195        0.00033678
      25         -0.475825        2.000000        0.00793322        0.06688665        0.01611211        0.05255199        0.00092454        0.00093241        0.00040201        0.00045908        0.00024124
      26         -0.469174        2.000000        0.00168775        0.01265928        0.01872596        0.01337521        0.00057185        0.00038034        0.00027405        0.00011982        0.00013645
      27         -0.466865        2.000000        0.00821981        0.00601082        0.00953628        0.00043035        0.00057026        0.00002910        0.00016826        0.00017723        0.00003142
      28         -0.450910        2.000000        0.00621543        0.00376520        0.00639974        0.00129906        0.00058682        0.00000059        0.00028050        0.00055681        0.00016074
      29         -0.441308        2.000000        0.02330671        0.01779941        0.07342458        0.00945278        0.00012817        0.00041412        0.00028746        0.00016399        0.00001013
      30         -0.439833        2.000000        0.02137240        0.02364541        0.06552660        0.00942146        0.00027806        0.00058960        0.00009946        0.00007047        0.00005238
      31         -0.415644        2.000000        0.00029773        0.11162380        0.04927506        0.12280803        0.00025239        0.00078465        0.00147489        0.00084405        0.00138450
      32         -0.412486        2.000000        0.00013932        0.11058850        0.07705131        0.12234376        0.00032326        0.00049964        0.00111772        0.00119581        0.00186712
      33         -0.408390        2.000000        0.00450162        0.01498875        0.01002174        0.05299342        0.00058681        0.00024194        0.00015175        0.00073705        0.00017684
      34         -0.400361        2.000000        0.00502679        0.04443443        0.01330141        0.06049167        0.00056659        0.00055527        0.00027622        0.00035429        0.00004089
      35         -0.393807        2.000000        0.00215250        0.00937910        0.00420228        0.00799709        0.00004933        0.00023499        0.00006465        0.00006257        0.00009097
      36         -0.387650        2.000000        0.00268576        0.00242547        0.01053284        0.00316735        0.00002894        0.00003261        0.00012054        0.00037744        0.00015192
      37         -0.378623        2.000000        0.00832109        0.04154763        0.01644564        0.04449488        0.00034583        0.00001608        0.00015429        0.00033711        0.00023172
      38         -0.367714        2.000000        0.01275608        0.05613526        0.00783247        0.04615332        0.00048179        0.00010708        0.00024837        0.00071178        0.00006220
      39         -0.362178        2.000000        0.00094531        0.00345564        0.03443346        0.00160482        0.00034905        0.00014310        0.00052714        0.00000020        0.00000102
      40         -0.356590        2.000000        0.00071489        0.00180144        0.02095237        0.00875346        0.00019620        0.00075427        0.00007981        0.00049479        0.00019124
      41         -0.352562        2.000000        0.00721420        0.01891114        0.01477579        0.00620273        0.00051214        0.00026733        0.00026450        0.00002219        0.00128096
      42         -0.349737        2.000000        0.01551558        0.04102676        0.00862751        0.01615508        0.00010309        0.00013307        0.00004822        0.00183382        0.00111917
      43         -0.343176        2.000000        0.01232494        0.00177780        0.04762270        0.04506732        0.00022813        0.00151924        0.00018589        0.00026892        0.00084359
      44         -0.339936        2.000000        0.00384444        0.01898238        0.04281039        0.00242459        0.00036983        0.00006607        0.00121803        0.00077866        0.00017768
      45         -0.335474        2.000000        0.00173345        0.01920978        0.01895600        0.02353441        0.00022927        0.00035384        0.00024727        0.00049797        0.00038674
      46         -0.326450        2.000000        0.00156229        0.01731036        0.02582043        0.01896211        0.00020471        0.00030770        0.00013549        0.00091379        0.00006589
      47         -0.312545        2.000000        0.00215737        0.02132510        0.00312932        0.00529262        0.00096358        0.00006633        0.00070116        0.00018955        0.00002222
      48         -0.302958        2.000000        0.01014011        0.03260293        0.09694269        0.08706833        0.00008873        0.00111048        0.00014493        0.00128368        0.00023593
      49         -0.297475        2.000000        0.01460094        0.10699040        0.05063455        0.02923240        0.00008407        0.00021889        0.00011679        0.00091511        0.00044105
      50         -0.296047        2.000000        0.00023392        0.11419914        0.06135843        0.11841781        0.00025629        0.00032565        0.00065555        0.00047420        0.00108798
      51         -0.293525        2.000000        0.00002614        0.08633789        0.07770920        0.10389749        0.00032943        0.00012618        0.00075040        0.00016212        0.00000593
      52         -0.277122        2.000000        0.00027285        0.00092443        0.00041276        0.00067947        0.00063810        0.00095536        0.00190637        0.00044368        0.00335724
      53         -0.258600        2.000000        0.00009227        0.00190060        0.00029853        0.00015230        0.00082729        0.00065088        0.00166612        0.00080346        0.00289644
      54         -0.241554        2.000000        0.00166814        0.00724414        0.05357259        0.00162979        0.00011493        0.00094182        0.00087616        0.00002638        0.00004172
      55         -0.237471        2.000000        0.00205194        0.02436602        0.04099896        0.00036148        0.00012989        0.00048337        0.00123810        0.00010535        0.00023063
      56         -0.226588        2.000000        0.00008003        0.00026867        0.00059074        0.00013041        0.00007547        0.00032275        0.00004831        0.00010747        0.00097087
      57         -0.221156        2.000000        0.00004182        0.00045596        0.00304293        0.00040716        0.00004247        0.00022282        0.00000002        0.00001796        0.00031008
      58         -0.210264        2.000000        0.00000290        0.05147244        0.01412317        0.05727581        0.00002903        0.00028477        0.00002214        0.00012883        0.00337293
      59         -0.206158        2.000000        0.00000622        0.04158518        0.04492795        0.03900286        0.00020238        0.00095666        0.00058127        0.00013892        0.00201647
      60         -0.178784        2.000000        0.00001322        0.00198454        0.00100195        0.00203197        0.00048380        0.00028448        0.00096965        0.00044981        0.00117412
      61         -0.163461        2.000000        0.00001752        0.00121063        0.00029279        0.00051287        0.00029073        0.00028847        0.00079056        0.00033969        0.00149396
      62         -0.089512        0.000000        0.00010348        0.01854974        0.00689446        0.01649308        0.00055375        0.00030391        0.00092444        0.00085946        0.00041634
      63         -0.046758        0.000000        0.00124131        0.00728869        0.00489170        0.00827519        0.00074282        0.00033195        0.00223892        0.00149674        0.00131502
      64         -0.028089        0.000000        0.00083421        0.01056395        0.00446074        0.01550833        0.00003070        0.00136885        0.00055363        0.00022211        0.00694785
      65         -0.020944        0.000000        0.00009687        0.02864116        0.01964841        0.04394473        0.00003316        0.00140530        0.00093588        0.00110512        0.00693324
      66         -0.003605        0.000000        0.00111386        0.01284118        0.00737441        0.01096081        0.00043482        0.00014160        0.00051119        0.00053991        0.00265180
      67         -0.001998        0.000000        0.01206021        0.00906209        0.00559572        0.01048144        0.00315018        0.00152987        0.00266374        0.00050444        0.00024701
      68          0.004220        0.000000        0.00190118        0.00320719        0.00334874        0.00301182        0.00260889        0.00176787        0.00004002        0.00012816        0.00125005
      69          0.037830        0.000000        0.00564746        0.00702474        0.01298850        0.01081133        0.00167215        0.00001467        0.00227891        0.00116763        0.00053287
      70          0.041105        0.000000        0.00158673        0.00033330        0.00014759        0.00145724        0.00001636        0.00000090        0.00000424        0.00001459        0.00022524
      71          0.043490        0.000000        0.02721356        0.00148898        0.00791207        0.00494170        0.00250924        0.00007463        0.00147794        0.00080985        0.00003775
      72          0.050588        0.000000        0.05827770        0.01671142        0.00244435        0.01487226        0.00052413        0.00270723        0.00108935        0.00335028        0.00037985
      73          0.067065        0.000000        0.00674433        0.00549409        0.00554080        0.01052476        0.00157459        0.00113646        0.00366060        0.00181847        0.00103301
      74          0.086251        0.000000        0.10774704        0.00555072        0.01624602        0.00619805        0.00080435        0.00365364        0.00043501        0.00190653        0.00095232
      75          0.095372        0.000000        0.00688447        0.01045239        0.00125304        0.01876876        0.00042378        0.00015367        0.00077007        0.00034944        0.00133754
      76          0.099553        0.000000        0.00889051        0.00228432        0.00742664        0.01629661        0.00111104        0.00085080        0.00280855        0.00011720        0.00061837
      77          0.104863        0.000000        0.01844210        0.00807207        0.00167577        0.01538684        0.00309981        0.00011076        0.00138073        0.00014805        0.00072881
      78          0.106682        0.000000        0.06327736        0.01393633        0.01980726        0.00370527        0.00117711        0.00429457        0.00326618        0.00026288        0.00067752
      79          0.118355        0.000000        0.00708884        0.00125743        0.00118623        0.00046990        0.00050735        0.00050589        0.00038442        0.00013855        0.00052100
      80          0.121470        0.000000        0.07372936        0.00237496        0.01459750        0.00212841        0.00303765        0.00213719        0.00190991        0.00031368        0.00023815
      81          0.126573        0.000000        0.00297662        0.00580840        0.00052579        0.00015472        0.00008352        0.00094516        0.00052474        0.00096581        0.00663000
      82          0.135940        0.000000        0.01023602        0.00798923        0.00286331        0.00420497        0.00041366        0.00081387        0.00174964        0.00252562        0.00055860
      83          0.143392        0.000000        0.01763482        0.00781564        0.00068734        0.00177139        0.00013933        0.00192904        0.00104602        0.00002561        0.00235179
      84          0.152626        0.000000        0.00085926        0.00617814        0.00759805        0.00009430        0.00007170        0.00051079        0.00068911        0.00079930        0.00011920
      85          0.156413        0.000000        0.00012916        0.00093551        0.01247325        0.00040385        0.00032561        0.00109878        0.00015056        0.00011400        0.00080536
      86          0.168483        0.000000        0.00072143        0.00107655        0.00467940        0.00333752        0.00136590        0.00138995        0.00119226        0.00018562        0.00015311
      87          0.172821        0.000000        0.00056445        0.01718729        0.04085817        0.01834629        0.00620722        0.01315666        0.00922707        0.00105099        0.00064075
      88          0.177277        0.000000        0.00241283        0.00505336        0.01420364        0.00317692        0.00058749        0.00338871        0.00244839        0.00079604        0.00026422
      89          0.184879        0.000000        0.00003997        0.03465645        0.01778619        0.01402055        0.00171043        0.00931204        0.00924343        0.00026695        0.00035284
      90          0.188166        0.000000        0.00723802        0.00424357        0.00460964        0.00362622        0.00080719        0.00285685        0.00052922        0.00070833        0.00029359
      91          0.193334        0.000000        0.00387834        0.00156271        0.00578115        0.00457114        0.00114439        0.00007486        0.00036710        0.00122876        0.00008433
      92          0.195241        0.000000        0.00485157        0.02318675        0.01547512        0.01081020        0.00823813        0.00051568        0.00243903        0.00121677        0.00010838
      93          0.204123        0.000000        0.00163555        0.00591245        0.02855693        0.00415266        0.00017683        0.00082315        0.00059953        0.00057026        0.00000774
      94          0.208981        0.000000        0.00328204        0.01138290        0.00233726        0.00710788        0.00260146        0.00099904        0.00104012        0.00056586        0.00023114
      95          0.220722        0.000000        0.00178435        0.00634283        0.04829433        0.03757100        0.00629173        0.00493708        0.00386293        0.00403107        0.00347168
      96          0.226339        0.000000        0.00320608        0.02799643        0.01599955        0.01761072        0.00339308        0.00003321        0.00056278        0.00198502        0.00037613
      97          0.229410        0.000000        0.00124084        0.00913012        0.00776386        0.00607470        0.00195831        0.00070665        0.00222679        0.00103879        0.00057864
      98          0.236749        0.000000        0.00116746        0.00333758        0.01514941        0.00736823        0.00938069        0.00287096        0.00125051        0.00052794        0.00039140
      99          0.239847        0.000000        0.00082107        0.00229077        0.01249443        0.00172511        0.00358224        0.00118626        0.00336731        0.00355450        0.00190750
     100          0.250237        0.000000        0.00322480        0.02071219        0.03056915        0.01562496        0.00741869        0.00257240        0.00010273        0.00527807        0.00079198
     101          0.256682        0.000000        0.00154230        0.01061566        0.00512566        0.00941894        0.00140727        0.00030623        0.00068647        0.00002495        0.00075742
     102          0.270307        0.000000        0.00076446        0.00508248        0.00564923        0.00073734        0.00137830        0.00245282        0.00008262        0.00048949        0.00128668
     103          0.271989        0.000000        0.00025480        0.00779961        0.00262692        0.00361189        0.00095266        0.00043085        0.00040013        0.00024311        0.00010309
     104          0.275474        0.000000        0.00067134        0.01053590        0.00827188        0.01507994        0.00574746        0.00277880        0.00117232        0.00208986        0.00000765
     105          0.284578        0.000000        0.00031326        0.00810350        0.00710403        0.00884594        0.00634619        0.00180342        0.00753039        0.00108964        0.00006831
     106          0.285968        0.000000        0.00036566        0.00274958        0.00657901        0.00273292        0.00052321        0.00517026        0.00248310        0.00208835        0.00123739
     107          0.295067        0.000000        0.00164935        0.00121547        0.00786230        0.00719253        0.00323572        0.00679296        0.00346863        0.00016464        0.00016856
     108          0.308211        0.000000        0.00661158        0.01086059        0.00180198        0.00642417        0.00395108        0.00552666        0.00328347        0.00195827        0.00086028
     109          0.314879        0.000000        0.00275119        0.00281054        0.00507370        0.00680811        0.00222783        0.00227138        0.00323860        0.00074712        0.00085706
     110          0.317345        0.000000        0.01300748        0.00500763        0.00556589        0.00689943        0.00040932        0.00656151        0.00280850        0.00035356        0.00050352
     111          0.323853        0.000000        0.00060252        0.00321034        0.00467081        0.00219734        0.00111570        0.00038617        0.00025126        0.00016162        0.00002787
