# Projected DOS for atomic kind O at iteration step i = 0, E(Fermi) =    -0.160585 a.u.
#     MO Eigenvalue [a.u.]      Occupation                 s                py                pz                px               d-2               d-1                d0               d+1               d+2
       1         -1.019999        2.000000        0.35356120        0.01869785        0.00494178        0.00516490        0.00068378        0.00048676        0.00000980        0.00082016        0.00000732
       2         -1.017509        2.000000        0.34549339        0.00099751        0.01855445        0.00990697        0.00114426        0.00036350        0.00013895        0.00030503        0.00002424
       3         -0.858136        2.000000        0.00090916        0.00014989        0.00028327        0.00060620        0.00002799        0.00000790        0.00000549        0.00001421        0.00000453
       4         -0.854841        2.000000        0.00144975        0.00053602        0.00004883        0.00039623        0.00004465        0.00000026        0.00000991        0.00000076        0.00000012
       5         -0.847157        2.000000        0.08974345        0.00302229        0.01617913        0.00167364        0.00014714        0.00014324        0.00232893        0.00095716        0.00002961
       6         -0.834707        2.000000        0.08072035        0.00872046        0.01248851        0.00134602        0.00002331        0.00245613        0.00015204        0.00010399        0.00079603
       7         -0.813359        2.000000        0.00078426        0.00494970        0.00354264        0.00997001        0.00011508        0.00034560        0.00018633        0.00071792        0.00021412
       8         -0.763259        2.000000        0.00255003        0.00602880        0.01666943        0.02085610        0.00153371        0.00116625        0.00104527        0.00009360        0.00022012
       9         -0.755215        2.000000        0.00536660        0.02270569        0.00516423        0.01050903        0.00170047        0.00075817        0.00141806        0.00015741        0.00010074
      10         -0.707174        2.000000        0.00174429        0.00867040        0.01518974        0.02492478        0.00080112        0.00115960        0.00096992        0.00164360        0.00041095
      11         -0.680127        2.000000        0.00146838        0.02152279        0.01699070        0.02906956        0.00040458        0.00094085        0.00042163        0.00019701        0.00014441
      12         -0.672623        2.000000        0.01002393        0.00733185        0.00477964        0.00731387        0.00063814        0.00022032        0.00019145        0.00033844        0.00016042
      13         -0.668840        2.000000        0.00737203        0.00064838        0.00014153        0.00038612        0.00006894        0.00041858        0.00016746        0.00103336        0.00026905
      14         -0.660127        2.000000        0.00435113        0.01078797        0.00933546        0.01358998        0.00228632        0.00108404        0.00133544        0.00022879        0.00017461
      15         -0.637230        2.000000        0.00673869        0.01119640        0.00479852        0.00840914        0.00148786        0.00070435        0.00097924        0.00041875        0.00027778
      16         -0.594151        2.000000        0.00515624        0.00689121        0.01198134        0.01469634        0.00049484        0.00071532        0.00063874        0.00135964        0.00035419
      17         -0.574825        2.000000        0.00042072        0.05540945        0.04116613        0.06119102        0.00072430        0.00141253        0.00095076        0.00034194        0.00015522
      18         -0.557077        2.000000        0.00714136        0.02367468        0.03689291        0.04494256        0.00062978        0.00036226        0.00034990        0.00052330        0.00039716
      19         -0.549658        2.000000        0.00355600        0.01675211        0.00890323        0.00430804        0.00068596        0.00020851        0.00049456        0.00037963        0.00009432
      20         -0.540222        2.000000        0.01921414        0.01395974        0.03786821        0.00075924        0.00029498        0.00014962        0.00006092        0.00049654        0.00002754
      21         -0.535945        2.000000        0.03263524        0.01011779        0.02771207        0.00157743        0.00047329        0.00008845        0.00000854        0.00021315        0.00000720
      22         -0.505022        2.000000        0.00230657        0.01764455        0.06040399        0.03351988        0.00017970        0.00067028        0.00058963        0.00021925        0.00030564
      23         -0.494649        2.000000        0.00362544        0.01559404        0.04764944        0.00453956        0.00058023        0.00081769        0.00059874        0.00170008        0.00078789
      24         -0.485065        2.000000        0.01220429        0.03679858        0.01055107        0.02572700        0.00050456        0.00044777        0.00032113        0.00087434        0.00034843
      25         -0.476557        2.000000        0.00695991        0.05935295        0.00920907        0.03893533        0.00053934        0.00053249        0.00028933        0.00032432        0.00014348
      26         -0.468601        2.000000        0.00515341        0.01318638        0.00404413        0.00927236        0.00059016        0.00016972        0.00017832        0.00012748        0.00006523
      27         -0.467580        2.000000        0.00521759        0.01106093        0.00118787        0.00810528        0.00116658        0.00020648        0.00039316        0.00009226        0.00006115
      28         -0.447447        2.000000        0.00737485        0.01942635        0.05359712        0.00391938        0.00016428        0.00060031        0.00061225        0.00016822        0.00023109
      29         -0.444489        2.000000        0.01910829        0.02797599        0.04974787        0.00287955        0.00019982        0.00018443        0.00020248        0.00072792        0.00006971
      30         -0.441763        2.000000        0.02768401        0.00518219        0.06956215        0.01550139        0.00067380        0.00036571        0.00002499        0.00021277        0.00010325
      31         -0.416120        2.000000        0.00022246        0.12169152        0.06837054        0.10859815        0.00020691        0.00058053        0.00150248        0.00072077        0.00168148
      32         -0.413283        2.000000        0.00006488        0.10986100        0.07140306        0.14460449        0.00030701        0.00078940        0.00124859        0.00110424        0.00161383
      33         -0.406788        2.000000        0.00424345        0.01562643        0.00626095        0.07231309        0.00068250        0.00016310        0.00016679        0.00081341        0.00018146
      34         -0.399841        2.000000        0.00502614        0.04365058        0.01170498        0.06305131        0.00050582        0.00056003        0.00020555        0.00029563        0.00008297
      35         -0.393231        2.000000        0.00236294        0.00990936        0.00448079        0.00615413        0.00004353        0.00028208        0.00005948        0.00006999        0.00010447
      36         -0.384713        2.000000        0.00413535        0.00867934        0.01026391        0.00262497        0.00002897        0.00001647        0.00008621        0.00036267        0.00011809
      37         -0.378474        2.000000        0.00811385        0.04382803        0.01394914        0.03570312        0.00031728        0.00000907        0.00018440        0.00053232        0.00023533
      38         -0.364965        2.000000        0.00967011        0.04682265        0.01485420        0.02445970        0.00037024        0.00021699        0.00016255        0.00043136        0.00002298
      39         -0.360043        2.000000        0.00075171        0.00462809        0.02286065        0.00501809        0.00036157        0.00048474        0.00037201        0.00015484        0.00010479
      40         -0.353121        2.000000        0.00163239        0.00487674        0.01118467        0.00818223        0.00030961        0.00049165        0.00073450        0.00089294        0.00022161
      41         -0.349789        2.000000        0.01292586        0.01664962        0.02569254        0.02044968        0.00071815        0.00052255        0.00001433        0.00011143        0.00032743
      42         -0.347749        2.000000        0.00649561        0.01927745        0.00499236        0.01283318        0.00011863        0.00036194        0.00004531        0.00095385        0.00159076
      43         -0.342056        2.000000        0.00888793        0.00319992        0.05629780        0.02606170        0.00013601        0.00096130        0.00016221        0.00022096        0.00098272
      44         -0.338534        2.000000        0.00815523        0.00717814        0.05502921        0.03446772        0.00034627        0.00046856        0.00087296        0.00136509        0.00043174
      45         -0.335208        2.000000        0.00410460        0.04750430        0.01909375        0.00253624        0.00030921        0.00013467        0.00037745        0.00078201        0.00039421
      46         -0.328262        2.000000        0.00038296        0.02253176        0.01111940        0.03134135        0.00007587        0.00010226        0.00019528        0.00047434        0.00008729
      47         -0.309626        2.000000        0.00341479        0.00829437        0.00580108        0.00396894        0.00086732        0.00011227        0.00055667        0.00016431        0.00005013
      48         -0.301649        2.000000        0.00972384        0.01466894        0.09536148        0.09892658        0.00017624        0.00111233        0.00018442        0.00132217        0.00010411
      49         -0.296514        2.000000        0.00065352        0.11268447        0.06793054        0.10859734        0.00025039        0.00034382        0.00050749        0.00039241        0.00102861
      50         -0.295234        2.000000        0.01221155        0.10861533        0.04806140        0.03255217        0.00003733        0.00015008        0.00017550        0.00103143        0.00047985
      51         -0.292233        2.000000        0.00008162        0.10280023        0.06195642        0.08446947        0.00037485        0.00014354        0.00096802        0.00009144        0.00003208
      52         -0.277083        2.000000        0.00025344        0.00056987        0.00040364        0.00079487        0.00069329        0.00099108        0.00198126        0.00057259        0.00365617
      53         -0.257692        2.000000        0.00007778        0.00174880        0.00055211        0.00025668        0.00092927        0.00076076        0.00183959        0.00080104        0.00272147
      54         -0.241602        2.000000        0.00164795        0.00752635        0.05022560        0.00143339        0.00010724        0.00097131        0.00093551        0.00004582        0.00003725
      55         -0.239762        2.000000        0.00180741        0.01839798        0.03731499        0.00037145        0.00017716        0.00053785        0.00129224        0.00008904        0.00019328
      56         -0.224275        2.000000        0.00013353        0.00020092        0.00078728        0.00043471        0.00010835        0.00039029        0.00006290        0.00014863        0.00109579
      57         -0.220676        2.000000        0.00006220        0.00051727        0.00192132        0.00026580        0.00002718        0.00014089        0.00000036        0.00001153        0.00032595
      58         -0.209657        2.000000        0.00000127        0.04726268        0.01481368        0.05376259        0.00003958        0.00028893        0.00003354        0.00013796        0.00326025
      59         -0.206630        2.000000        0.00000899        0.04221904        0.04093040        0.03751917        0.00020242        0.00091996        0.00059949        0.00014927        0.00199642
      60         -0.176549        2.000000        0.00001921        0.00193653        0.00101226        0.00192397        0.00054607        0.00032825        0.00111178        0.00049517        0.00135375
      61         -0.160585        2.000000        0.00001875        0.00122386        0.00026822        0.00058346        0.00032590        0.00035037        0.00091162        0.00034651        0.00162437
      62         -0.088342        0.000000        0.00012467        0.01918126        0.00763965        0.01706957        0.00054898        0.00034364        0.00101591        0.00085827        0.00044760
      63         -0.046500        0.000000        0.00102793        0.00806479        0.00567029        0.00917005        0.00076280        0.00035456        0.00246453        0.00149353        0.00118648
      64         -0.027907        0.000000        0.00083970        0.01381145        0.00517783        0.01969670        0.00002017        0.00134536        0.00083321        0.00007933        0.00729608
      65         -0.020975        0.000000        0.00001022        0.02483993        0.01783610        0.03879801        0.00005232        0.00142460        0.00060960        0.00109573        0.00681184
      66         -0.003811        0.000000        0.01401471        0.01145981        0.00545009        0.01077107        0.00401164        0.00177596        0.00273851        0.00048649        0.00019172
      67         -0.002735        0.000000        0.00056605        0.01200244        0.00745048        0.01061792        0.00030797        0.00012618        0.00012003        0.00054074        0.00248458
      68          0.003843        0.000000        0.00077317        0.00112960        0.00378881        0.00237438        0.00151938        0.00142924        0.00028330        0.00014682        0.00121882
      69          0.040328        0.000000        0.01584181        0.00843443        0.01766239        0.01679083        0.00347860        0.00008392        0.00389008        0.00177822        0.00030558
      70          0.048082        0.000000        0.00168480        0.00105781        0.00112348        0.00097697        0.00023252        0.00003567        0.00035465        0.00001113        0.00061368
      71          0.051530        0.000000        0.03183907        0.01051235        0.00132594        0.00918745        0.00024012        0.00239635        0.00091758        0.00271926        0.00052015
      72          0.051926        0.000000        0.04542853        0.00549316        0.00275605        0.00315878        0.00061091        0.00065273        0.00004190        0.00067068        0.00019044
      73          0.064756        0.000000        0.00072131        0.00566207        0.00367931        0.01152318        0.00193777        0.00094481        0.00383478        0.00180891        0.00071983
      74          0.084857        0.000000        0.08870505        0.00975197        0.00841557        0.01382521        0.00031034        0.00209355        0.00005944        0.00208507        0.00134741
      75          0.092773        0.000000        0.03820025        0.00485606        0.01286204        0.02066745        0.00140829        0.00151217        0.00222479        0.00018318        0.00081861
      76          0.098941        0.000000        0.00141302        0.00281969        0.00130959        0.00389703        0.00061387        0.00023207        0.00104994        0.00005631        0.00006504
      77          0.108081        0.000000        0.06072668        0.01682911        0.01882202        0.00438488        0.00151496        0.00475224        0.00348906        0.00046213        0.00084298
      78          0.109517        0.000000        0.01057724        0.00616304        0.00281322        0.00855175        0.00251516        0.00028470        0.00113871        0.00027310        0.00052835
      79          0.111607        0.000000        0.01752140        0.00092073        0.00076017        0.00261238        0.00012610        0.00061529        0.00006398        0.00007413        0.00034394
      80          0.120156        0.000000        0.06282828        0.00162613        0.00831165        0.00185519        0.00231556        0.00136372        0.00053560        0.00018384        0.00133996
      81          0.124547        0.000000        0.00196894        0.00592879        0.00022789        0.00062722        0.00021238        0.00129285        0.00060502        0.00128753        0.00630303
      82          0.135257        0.000000        0.02296750        0.00710599        0.00538335        0.00391706        0.00059128        0.00025128        0.00339948        0.00268511        0.00085162
      83          0.141256        0.000000        0.01695610        0.00671352        0.00053483        0.00101006        0.00013072        0.00138091        0.00097932        0.00000224        0.00251013
      84          0.152314        0.000000        0.00113840        0.00371524        0.00635187        0.00015439        0.00037283        0.00074572        0.00060270        0.00030806        0.00013024
      85          0.160349        0.000000        0.00027597        0.00415841        0.01815037        0.00035486        0.00021401        0.00233827        0.00052923        0.00024940        0.00073549
      86          0.168502        0.000000        0.00147868        0.00019031        0.00267350        0.00102022        0.00086177        0.00031204        0.00029165        0.00012863        0.00032283
      87          0.171618        0.000000        0.00286216        0.00207156        0.00726794        0.00246044        0.00033063        0.00043094        0.00041056        0.00002631        0.00005147
      88          0.177155        0.000000        0.00031293        0.01497071        0.05089359        0.02481900        0.00785063        0.01491503        0.01122166        0.00122462        0.00085049
      89          0.186800        0.000000        0.00032332        0.03074296        0.01499523        0.01238854        0.00053122        0.01035992        0.00877010        0.00041480        0.00035193
      90          0.188782        0.000000        0.00819880        0.00785492        0.00445772        0.00515214        0.00111137        0.00321788        0.00057052        0.00116490        0.00035307
      91          0.191787        0.000000        0.00159111        0.00479957        0.00109375        0.00299725        0.00055315        0.00068141        0.00086163        0.00155275        0.00004261
      92          0.196023        0.000000        0.00298372        0.02562068        0.02260618        0.00959578        0.00642439        0.00167168        0.00398259        0.00104212        0.00011499
      93          0.207042        0.000000        0.00406433        0.01588010        0.00191280        0.01168115        0.00429142        0.00162106        0.00142551        0.00085132        0.00018140
      94          0.208248        0.000000        0.00163836        0.00990471        0.03138033        0.00248875        0.00021861        0.00072656        0.00039327        0.00043791        0.00003967
      95          0.217872        0.000000        0.00262098        0.00497694        0.02217355        0.02314712        0.00889282        0.00285129        0.00406626        0.00569713        0.00297580
      96          0.226774        0.000000        0.00155937        0.02787900        0.02752022        0.01341727        0.00311096        0.00021957        0.00102497        0.00172575        0.00060416
      97          0.229259        0.000000        0.00091598        0.00359615        0.02614942        0.02826208        0.00364327        0.00224768        0.00220844        0.00021374        0.00058594
      98          0.232801        0.000000        0.00134100        0.00523389        0.01213762        0.00624541        0.00611545        0.00224259        0.00206202        0.00124009        0.00170843
      99          0.244265        0.000000        0.00057223        0.00403404        0.01190912        0.00188010        0.00329434        0.00031248        0.00222642        0.00569661        0.00186555
     100          0.255226        0.000000        0.00197123        0.01545272        0.02557845        0.01368555        0.00409628        0.00199607        0.00022035        0.00281994        0.00023082
     101          0.258647        0.000000        0.00241382        0.01488265        0.00785879        0.01204164        0.00353836        0.00010047        0.00036447        0.00010100        0.00109794
     102          0.267489        0.000000        0.00097313        0.00833090        0.00870809        0.00382428        0.00601869        0.00252490        0.00040800        0.00256043        0.00121305
     103          0.273362        0.000000        0.00026512        0.00618750        0.00451285        0.00313971        0.00137682        0.00102924        0.00033808        0.00003788        0.00015082
     104          0.276620        0.000000        0.00153223        0.00894581        0.00663568        0.00980735        0.00294678        0.00457966        0.00160158        0.00207270        0.00023946
     105          0.283351        0.000000        0.00033697        0.00401211        0.00756299        0.00074614        0.00149968        0.00444524        0.00500154        0.00311536        0.00014185
     106          0.286068        0.000000        0.00027271        0.00611506        0.00973992        0.00894377        0.00265296        0.00654211        0.00398465        0.00057962        0.00111186
     107          0.295828        0.000000        0.00131769        0.00029735        0.00482136        0.00575620        0.00153686        0.00389827        0.00242292        0.00047770        0.00017462
     108          0.308400        0.000000        0.00419018        0.00643617        0.00726872        0.00786194        0.00605820        0.00678175        0.00686241        0.00142854        0.00141811
     109          0.310582        0.000000        0.00990119        0.00556624        0.00155083        0.00831721        0.00419468        0.00241659        0.00228569        0.00066360        0.00038872
     110          0.314193        0.000000        0.01009781        0.00270508        0.00701737        0.01108506        0.00046350        0.00435032        0.00100336        0.00046936        0.00076499
     111          0.324018        0.000000        0.00027615        0.00609843        0.00300219        0.00348083        0.00044604        0.00031683        0.00026372        0.00029120        0.00015851
