# Projected DOS for atomic kind O at iteration step i = 0, E(Fermi) =    -0.162540 a.u.
#     MO Eigenvalue [a.u.]      Occupation                 s                py                pz                px               d-2               d-1                d0               d+1               d+2
       1         -1.016111        2.000000        0.34567917        0.00134345        0.01840286        0.00935868        0.00113217        0.00037943        0.00014661        0.00030443        0.00002497
       2         -1.015719        2.000000        0.34941083        0.01853272        0.00514683        0.00540024        0.00071935        0.00049943        0.00001009        0.00075146        0.00000335
       3         -0.852592        2.000000        0.00170102        0.00024998        0.00023368        0.00068866        0.00003615        0.00000307        0.00000608        0.00001130        0.00000176
       4         -0.850498        2.000000        0.00373874        0.00052032        0.00010487        0.00057050        0.00004407        0.00000000        0.00000022        0.00000928        0.00000000
       5         -0.846735        2.000000        0.08818472        0.00342350        0.01632519        0.00151266        0.00016899        0.00016301        0.00238335        0.00090706        0.00002493
       6         -0.837674        2.000000        0.08662165        0.00852462        0.01184187        0.00130665        0.00002058        0.00242691        0.00014599        0.00012666        0.00081569
       7         -0.815541        2.000000        0.00086240        0.00449003        0.00319141        0.00889999        0.00009902        0.00033194        0.00017531        0.00069126        0.00019699
       8         -0.764056        2.000000        0.00250382        0.00597179        0.01565731        0.01977023        0.00152585        0.00114215        0.00104960        0.00008178        0.00019765
       9         -0.756689        2.000000        0.00540358        0.02180112        0.00505509        0.01035005        0.00167292        0.00073520        0.00138196        0.00014113        0.00009358
      10         -0.707363        2.000000        0.00167106        0.00881674        0.01391588        0.02300723        0.00073918        0.00116891        0.00092196        0.00162555        0.00041283
      11         -0.681678        2.000000        0.00113533        0.02086290        0.01511156        0.02671684        0.00035672        0.00085184        0.00039938        0.00017891        0.00011406
      12         -0.673576        2.000000        0.01046870        0.00723032        0.00496654        0.00757275        0.00067568        0.00024279        0.00020674        0.00034916        0.00016246
      13         -0.669945        2.000000        0.00865620        0.00026076        0.00037264        0.00038086        0.00010465        0.00032743        0.00011240        0.00103151        0.00027946
      14         -0.661332        2.000000        0.00386785        0.01112875        0.00894981        0.01371261        0.00225257        0.00115054        0.00137492        0.00025652        0.00016474
      15         -0.638664        2.000000        0.00616909        0.01072170        0.00404969        0.00757674        0.00143327        0.00067132        0.00095889        0.00035452        0.00023169
      16         -0.594395        2.000000        0.00469312        0.00863365        0.01178174        0.01482119        0.00044925        0.00081172        0.00059445        0.00132418        0.00035859
      17         -0.575686        2.000000        0.00042400        0.05281121        0.04074940        0.06134334        0.00077096        0.00137224        0.00098653        0.00035695        0.00014140
      18         -0.557667        2.000000        0.00870401        0.02388566        0.03159343        0.04282626        0.00065969        0.00037020        0.00037069        0.00061354        0.00041029
      19         -0.548512        2.000000        0.00308984        0.01628720        0.00930796        0.00422059        0.00064846        0.00021736        0.00051123        0.00045521        0.00011544
      20         -0.539443        2.000000        0.01783101        0.01550950        0.03746739        0.00065716        0.00025911        0.00017745        0.00006373        0.00045453        0.00003945
      21         -0.536582        2.000000        0.03316246        0.00796575        0.02881937        0.00197812        0.00056669        0.00006216        0.00000122        0.00021954        0.00000559
      22         -0.502399        2.000000        0.00213046        0.01978768        0.05530219        0.03755812        0.00025241        0.00054315        0.00069971        0.00010530        0.00017271
      23         -0.494285        2.000000        0.00334737        0.01399182        0.04836822        0.00614549        0.00056468        0.00091272        0.00051279        0.00154488        0.00081376
      24         -0.484458        2.000000        0.01444177        0.03474470        0.01525820        0.02212138        0.00062518        0.00035569        0.00043617        0.00078451        0.00031864
      25         -0.475644        2.000000        0.00692946        0.06873426        0.01506440        0.04698403        0.00078349        0.00090403        0.00037074        0.00050549        0.00026636
      26         -0.468922        2.000000        0.00271544        0.01210216        0.01257840        0.01083700        0.00059790        0.00029412        0.00025390        0.00015282        0.00013409
      27         -0.467446        2.000000        0.00645974        0.00512675        0.00391989        0.00140668        0.00061930        0.00008569        0.00013378        0.00014428        0.00003090
      28         -0.449914        2.000000        0.00490044        0.00395728        0.00914041        0.00115698        0.00053581        0.00001083        0.00040354        0.00064762        0.00021306
      29         -0.442399        2.000000        0.02431397        0.02118851        0.07607453        0.00979538        0.00014986        0.00044050        0.00027637        0.00022364        0.00000674
      30         -0.440318        2.000000        0.02281077        0.02190935        0.07104785        0.01113215        0.00032920        0.00056537        0.00009879        0.00008443        0.00005852
      31         -0.415600        2.000000        0.00030992        0.11460818        0.05419828        0.11658778        0.00022630        0.00074361        0.00151458        0.00078401        0.00145046
      32         -0.412570        2.000000        0.00010112        0.11031824        0.07707031        0.12781022        0.00031881        0.00056933        0.00115669        0.00116582        0.00180654
      33         -0.407867        2.000000        0.00468002        0.01548741        0.00755005        0.06418335        0.00069668        0.00018889        0.00016289        0.00076611        0.00018299
      34         -0.400112        2.000000        0.00496836        0.04414431        0.01269858        0.06063957        0.00053527        0.00059309        0.00025514        0.00032642        0.00006005
      35         -0.393587        2.000000        0.00241656        0.00942248        0.00497544        0.00791278        0.00004893        0.00025314        0.00005828        0.00005870        0.00009643
      36         -0.384900        2.000000        0.00302339        0.00425768        0.01040026        0.00348154        0.00003591        0.00002685        0.00010427        0.00033916        0.00012008
      37         -0.378386        2.000000        0.00852470        0.04261487        0.01616018        0.04137610        0.00032560        0.00001617        0.00016212        0.00042333        0.00024644
      38         -0.366609        2.000000        0.01169668        0.05311921        0.01081526        0.03757703        0.00043364        0.00012592        0.00022234        0.00059903        0.00003811
      39         -0.361284        2.000000        0.00065033        0.00466783        0.02865860        0.00185529        0.00040727        0.00020802        0.00049607        0.00001022        0.00001970
      40         -0.355318        2.000000        0.00061176        0.00056847        0.01590126        0.00944858        0.00025495        0.00078722        0.00029064        0.00072683        0.00029591
      41         -0.351882        2.000000        0.00914245        0.02064001        0.01768005        0.00966898        0.00051075        0.00020376        0.00016612        0.00001210        0.00077087
      42         -0.349241        2.000000        0.01223484        0.03482115        0.00636132        0.01534414        0.00012425        0.00021863        0.00001694        0.00163172        0.00139801
      43         -0.342778        2.000000        0.01232946        0.00331804        0.05102817        0.04137149        0.00022904        0.00142155        0.00013035        0.00031946        0.00095950
      44         -0.339270        2.000000        0.00518586        0.01525164        0.05379630        0.00666272        0.00025555        0.00011418        0.00133191        0.00088914        0.00009093
      45         -0.335874        2.000000        0.00217250        0.02518053        0.01442471        0.02141952        0.00026802        0.00034672        0.00010347        0.00051022        0.00046582
      46         -0.327246        2.000000        0.00108177        0.01757543        0.02112690        0.02201781        0.00015979        0.00022900        0.00014838        0.00076015        0.00007184
      47         -0.311502        2.000000        0.00254014        0.01708570        0.00336050        0.00390560        0.00096776        0.00007104        0.00068096        0.00015038        0.00002134
      48         -0.302071        2.000000        0.00992078        0.02659421        0.09639292        0.09371092        0.00010995        0.00111543        0.00015322        0.00131925        0.00018025
      49         -0.296697        2.000000        0.01282567        0.09288446        0.03176497        0.06133959        0.00013027        0.00005767        0.00001739        0.00107532        0.00051021
      50         -0.296304        2.000000        0.00156105        0.13480844        0.08137854        0.08148724        0.00017235        0.00047627        0.00070672        0.00031402        0.00106780
      51         -0.293136        2.000000        0.00001015        0.08775342        0.07543512        0.10056004        0.00035806        0.00013194        0.00081790        0.00014936        0.00000638
      52         -0.277163        2.000000        0.00027183        0.00089282        0.00045474        0.00079500        0.00065688        0.00096899        0.00192774        0.00048168        0.00342567
      53         -0.258448        2.000000        0.00008866        0.00197552        0.00041745        0.00022748        0.00085347        0.00067831        0.00170484        0.00079928        0.00282830
      54         -0.241684        2.000000        0.00164679        0.00742453        0.05270293        0.00151001        0.00011194        0.00096772        0.00088835        0.00003363        0.00003881
      55         -0.238163        2.000000        0.00196935        0.02237553        0.03978238        0.00036954        0.00014274        0.00048871        0.00126268        0.00010388        0.00021692
      56         -0.225653        2.000000        0.00009622        0.00023434        0.00067781        0.00022247        0.00008799        0.00035039        0.00005100        0.00012286        0.00101944
      57         -0.221081        2.000000        0.00004903        0.00052787        0.00258619        0.00033166        0.00003617        0.00018491        0.00000013        0.00001405        0.00029768
      58         -0.209998        2.000000        0.00000234        0.05035939        0.01433094        0.05633480        0.00003001        0.00028203        0.00002268        0.00013085        0.00331135
      59         -0.206202        2.000000        0.00000692        0.04176919        0.04385917        0.03833541        0.00020662        0.00095493        0.00059525        0.00014434        0.00202498
      60         -0.177959        2.000000        0.00001470        0.00192620        0.00098262        0.00194460        0.00050334        0.00030172        0.00101865        0.00045903        0.00122849
      61         -0.162540        2.000000        0.00001738        0.00120884        0.00028430        0.00053305        0.00030094        0.00030341        0.00081962        0.00034782        0.00155105
      62         -0.088825        0.000000        0.00010967        0.01878249        0.00714283        0.01668624        0.00055728        0.00031493        0.00095643        0.00086021        0.00042581
      63         -0.046606        0.000000        0.00118734        0.00760675        0.00517919        0.00864425        0.00074474        0.00033157        0.00230750        0.00150065        0.00126004
      64         -0.027809        0.000000        0.00088111        0.01158950        0.00459055        0.01680575        0.00002656        0.00135883        0.00066492        0.00016612        0.00708117
      65         -0.021021        0.000000        0.00005188        0.02736813        0.01916795        0.04239202        0.00003816        0.00141927        0.00081024        0.00109491        0.00695744
      66         -0.003190        0.000000        0.00115487        0.01321706        0.00723150        0.01086299        0.00051332        0.00015063        0.00040664        0.00055793        0.00263533
      67         -0.002743        0.000000        0.01263203        0.00947190        0.00577597        0.01071470        0.00342389        0.00162407        0.00264899        0.00048203        0.00017201
      68          0.004238        0.000000        0.00137052        0.00224122        0.00340021        0.00269500        0.00216541        0.00163621        0.00010910        0.00013276        0.00117715
      69          0.039542        0.000000        0.01047284        0.00828188        0.01629939        0.01455336        0.00270317        0.00005449        0.00328928        0.00160776        0.00037327
      70          0.044487        0.000000        0.00040188        0.00084493        0.00039120        0.00109938        0.00002827        0.00000935        0.00002081        0.00003540        0.00040852
      71          0.045951        0.000000        0.02360102        0.00068561        0.00394609        0.00174821        0.00150058        0.00003889        0.00066205        0.00032698        0.00008417
      72          0.051170        0.000000        0.05956084        0.01564556        0.00267290        0.01388676        0.00044525        0.00283162        0.00096059        0.00325131        0.00037979
      73          0.066168        0.000000        0.00396857        0.00551961        0.00475182        0.01114636        0.00168788        0.00106815        0.00370003        0.00177734        0.00096885
      74          0.085399        0.000000        0.10655634        0.00613126        0.01473116        0.00729631        0.00072751        0.00315781        0.00028000        0.00202054        0.00104773
      75          0.093685        0.000000        0.00749397        0.01072646        0.00285287        0.02329233        0.00062856        0.00029604        0.00126988        0.00029822        0.00148180
      76          0.099680        0.000000        0.00846958        0.00193422        0.00874114        0.00993457        0.00101866        0.00113408        0.00270395        0.00025208        0.00025129
      77          0.106403        0.000000        0.01286007        0.00930600        0.00101507        0.01547081        0.00342166        0.00017498        0.00166853        0.00013718        0.00084124
      78          0.107331        0.000000        0.07062646        0.01286546        0.01938388        0.00196359        0.00088205        0.00444244        0.00273669        0.00024988        0.00053484
      79          0.115746        0.000000        0.00473819        0.00136467        0.00024112        0.00082290        0.00009719        0.00037005        0.00002740        0.00011156        0.00034102
      80          0.120435        0.000000        0.07280899        0.00208988        0.01230154        0.00148005        0.00290988        0.00202006        0.00137138        0.00025232        0.00053863
      81          0.125689        0.000000        0.00222352        0.00557226        0.00042918        0.00026872        0.00010120        0.00099189        0.00053562        0.00108179        0.00661678
      82          0.135454        0.000000        0.01467119        0.00744992        0.00466190        0.00445318        0.00047301        0.00052294        0.00241434        0.00263359        0.00060831
      83          0.143061        0.000000        0.01899322        0.00836424        0.00038926        0.00146014        0.00011483        0.00175352        0.00119894        0.00004104        0.00241687
      84          0.149740        0.000000        0.00029721        0.00329656        0.00668833        0.00023287        0.00024667        0.00049879        0.00050493        0.00029712        0.00008466
      85          0.157689        0.000000        0.00019446        0.00183407        0.01535720        0.00040572        0.00034085        0.00156299        0.00026375        0.00020130        0.00086681
      86          0.167580        0.000000        0.00104521        0.00014774        0.00227166        0.00149068        0.00075470        0.00043352        0.00046726        0.00011330        0.00016188
      87          0.173545        0.000000        0.00044980        0.01469997        0.03410254        0.01702602        0.00599235        0.01136092        0.00812079        0.00089937        0.00053088
      88          0.176579        0.000000        0.00221181        0.00729330        0.02328555        0.00618983        0.00141413        0.00538342        0.00400114        0.00087032        0.00037768
      89          0.185338        0.000000        0.00009855        0.03400109        0.01676680        0.01289381        0.00125066        0.00978121        0.00929893        0.00036435        0.00033865
      90          0.188281        0.000000        0.00720220        0.00616260        0.00422770        0.00407108        0.00100496        0.00282798        0.00048654        0.00072383        0.00031482
      91          0.192626        0.000000        0.00355341        0.00233627        0.00443887        0.00486645        0.00105359        0.00034334        0.00067251        0.00143447        0.00009412
      92          0.195489        0.000000        0.00438912        0.02498893        0.01837061        0.01037948        0.00779468        0.00079075        0.00290262        0.00114190        0.00009969
      93          0.205450        0.000000        0.00080669        0.00431867        0.02744434        0.00522184        0.00092872        0.00119817        0.00066859        0.00067619        0.00004224
      94          0.208013        0.000000        0.00416142        0.01464873        0.00495742        0.00694696        0.00219902        0.00092722        0.00100011        0.00046878        0.00020441
      95          0.220472        0.000000        0.00251227        0.00555601        0.04006692        0.03562909        0.00774501        0.00420316        0.00406203        0.00520396        0.00355434
      96          0.226318        0.000000        0.00208224        0.03080588        0.02309683        0.01549060        0.00287278        0.00011927        0.00073158        0.00224363        0.00055342
      97          0.230462        0.000000        0.00147272        0.00412760        0.00594868        0.00975227        0.00154224        0.00056818        0.00175708        0.00052222        0.00012501
      98          0.233882        0.000000        0.00117849        0.00420951        0.01733707        0.00947043        0.00917326        0.00324287        0.00205109        0.00001466        0.00098330
      99          0.241204        0.000000        0.00071101        0.00285970        0.01222612        0.00186052        0.00332602        0.00076467        0.00269710        0.00457539        0.00190175
     100          0.251765        0.000000        0.00308056        0.01972170        0.02966073        0.01537277        0.00640116        0.00241024        0.00010408        0.00428790        0.00055436
     101          0.257283        0.000000        0.00176009        0.01148267        0.00574440        0.01004471        0.00198888        0.00021576        0.00058088        0.00003115        0.00084056
     102          0.268813        0.000000        0.00080736        0.00642738        0.00605799        0.00190889        0.00310226        0.00234365        0.00005262        0.00102424        0.00123472
     103          0.272618        0.000000        0.00019501        0.00699318        0.00353665        0.00371678        0.00120956        0.00070909        0.00039196        0.00013448        0.00011906
     104          0.275322        0.000000        0.00098143        0.00954832        0.00788803        0.01327947        0.00463735        0.00350374        0.00125189        0.00218836        0.00007324
     105          0.284190        0.000000        0.00029539        0.00712898        0.00649630        0.00661198        0.00510308        0.00172630        0.00690428        0.00141371        0.00006124
     106          0.286454        0.000000        0.00040397        0.00313309        0.00867958        0.00427801        0.00104090        0.00671915        0.00302241        0.00199991        0.00135894
     107          0.294962        0.000000        0.00166600        0.00088212        0.00737927        0.00748674        0.00300595        0.00638505        0.00335850        0.00025317        0.00014273
     108          0.308705        0.000000        0.00628501        0.01068875        0.00199878        0.00665780        0.00444377        0.00558105        0.00384168        0.00184249        0.00097499
     109          0.313824        0.000000        0.00228712        0.00165573        0.00543416        0.00808749        0.00287480        0.00199709        0.00269452        0.00042280        0.00084028
     110          0.316051        0.000000        0.01441977        0.00504267        0.00502791        0.00724158        0.00080133        0.00562081        0.00274338        0.00034414        0.00045790
     111          0.323496        0.000000        0.00025373        0.00497801        0.00327304        0.00214725        0.00076564        0.00042405        0.00016491        0.00027463        0.00006971
