# Projected DOS for atomic kind H at iteration step i = 0, E(Fermi) =    -0.162995 a.u.
#     MO Eigenvalue [a.u.]      Occupation                 s                py                pz                px
       1         -1.035483        2.000000        0.00335500        0.00143032        0.00255616        0.00060781
       2         -1.020065        2.000000        0.00317762        0.00127633        0.00240361        0.00046372
       3         -0.849599        2.000000        0.00954245        0.00422774        0.00183837        0.00199008
       4         -0.841919        2.000000        0.06188082        0.00484762        0.02047555        0.01362646
       5         -0.839136        2.000000        0.19696077        0.06290550        0.02076718        0.02970558
       6         -0.837360        2.000000        0.14282673        0.00974294        0.04439335        0.02867790
       7         -0.817611        2.000000        0.04177265        0.01000048        0.01407687        0.00449892
       8         -0.767237        2.000000        0.06977864        0.01253291        0.01763674        0.00751720
       9         -0.761944        2.000000        0.07962344        0.01464397        0.01843663        0.00862216
      10         -0.710481        2.000000        0.04573364        0.00727935        0.01069636        0.00463275
      11         -0.689903        2.000000        0.07564534        0.01058679        0.01210039        0.00804603
      12         -0.677893        2.000000        0.09605437        0.01124946        0.01722105        0.00564712
      13         -0.671784        2.000000        0.08702378        0.01230514        0.01237324        0.00632813
      14         -0.661361        2.000000        0.05808641        0.00673067        0.00797385        0.00514388
      15         -0.639607        2.000000        0.06995528        0.00938193        0.00861978        0.00519117
      16         -0.597516        2.000000        0.05604008        0.00535167        0.00677625        0.00283526
      17         -0.580324        2.000000        0.07180519        0.00386010        0.00661605        0.00403262
      18         -0.557382        2.000000        0.06107445        0.00553094        0.00546066        0.00584827
      19         -0.550007        2.000000        0.08221354        0.00788686        0.00806630        0.00223086
      20         -0.542680        2.000000        0.09767946        0.00571749        0.00781893        0.00208920
      21         -0.537128        2.000000        0.09330493        0.00463365        0.00531409        0.00562770
      22         -0.502774        2.000000        0.05068741        0.00617428        0.00474235        0.00506706
      23         -0.494109        2.000000        0.08976644        0.00319472        0.00553610        0.00292667
      24         -0.479900        2.000000        0.13574322        0.00580138        0.00599304        0.00761137
      25         -0.471012        2.000000        0.10224745        0.00352389        0.00262247        0.00238466
      26         -0.466518        2.000000        0.15327407        0.00578062        0.00257451        0.00586763
      27         -0.461498        2.000000        0.14004422        0.00343078        0.00467527        0.00613409
      28         -0.450575        2.000000        0.13765658        0.00455147        0.01088312        0.00193548
      29         -0.448889        2.000000        0.17524066        0.00410577        0.00691025        0.00367424
      30         -0.444833        2.000000        0.19216216        0.00310285        0.00332801        0.00324934
      31         -0.426004        2.000000        0.00353858        0.00100977        0.00055415        0.00087338
      32         -0.415951        2.000000        0.00298243        0.00123328        0.00055579        0.00090158
      33         -0.406542        2.000000        0.15475532        0.00392342        0.00121346        0.00518478
      34         -0.397792        2.000000        0.15114053        0.00292846        0.00353655        0.00467552
      35         -0.388975        2.000000        0.21455613        0.00133847        0.00258898        0.00178068
      36         -0.387565        2.000000        0.26247552        0.00139987        0.00170865        0.00085778
      37         -0.378294        2.000000        0.07349533        0.00304133        0.00269723        0.00321529
      38         -0.370827        2.000000        0.05941127        0.00331382        0.00528395        0.00296168
      39         -0.363034        2.000000        0.06383966        0.00363947        0.00215250        0.00215575
      40         -0.359550        2.000000        0.04718244        0.00495260        0.00482742        0.00305891
      41         -0.352731        2.000000        0.04927729        0.00391472        0.00142917        0.00742103
      42         -0.350167        2.000000        0.11691789        0.00143281        0.00072421        0.00348598
      43         -0.345420        2.000000        0.14747485        0.00103308        0.00134621        0.00439197
      44         -0.333924        2.000000        0.08240558        0.00431281        0.00557063        0.00409822
      45         -0.333138        2.000000        0.05597354        0.01220986        0.00287610        0.00796792
      46         -0.326647        2.000000        0.01361390        0.00994291        0.00953032        0.01313525
      47         -0.314952        2.000000        0.13060368        0.00084687        0.00144024        0.00135224
      48         -0.306147        2.000000        0.14401133        0.00126973        0.00179560        0.00114191
      49         -0.300412        2.000000        0.04460677        0.00166003        0.00243442        0.00291591
      50         -0.299163        2.000000        0.03453719        0.00209708        0.00135079        0.00218722
      51         -0.292743        2.000000        0.00812811        0.00463118        0.00124298        0.00459876
      52         -0.275925        2.000000        0.00290269        0.01006610        0.00747819        0.01632711
      53         -0.257437        2.000000        0.00235755        0.01395165        0.00670808        0.01987857
      54         -0.243549        2.000000        0.01503215        0.00076385        0.00066351        0.00190547
      55         -0.235898        2.000000        0.01408621        0.00219612        0.00024834        0.00088819
      56         -0.228470        2.000000        0.00034036        0.00750009        0.00602103        0.01273956
      57         -0.222750        2.000000        0.00132037        0.01342224        0.00632553        0.01827398
      58         -0.216947        2.000000        0.00044929        0.01175052        0.00689503        0.01545618
      59         -0.210674        2.000000        0.00114296        0.00873887        0.00767103        0.01985118
      60         -0.178619        2.000000        0.00431720        0.01349347        0.00750863        0.02503156
      61         -0.162995        2.000000        0.00344486        0.01011158        0.00617270        0.01969810
      62         -0.089374        0.000000        0.00114414        0.00481929        0.00361937        0.00925165
      63         -0.044650        0.000000        0.00255090        0.01592236        0.01087331        0.02201147
      64         -0.028699        0.000000        0.00214118        0.01834641        0.01286228        0.02885610
      65         -0.019602        0.000000        0.00212050        0.01454493        0.00790942        0.02221502
      66         -0.008071        0.000000        0.00540962        0.00798637        0.00541576        0.02329676
      67         -0.002733        0.000000        0.01372100        0.00374712        0.01061317        0.00922589
      68          0.001580        0.000000        0.00747883        0.01204516        0.00618695        0.01684017
      69          0.038841        0.000000        0.03571531        0.00432416        0.01111211        0.01602033
      70          0.049058        0.000000        0.25713489        0.10377181        0.04949654        0.09121818
      71          0.051795        0.000000        0.25478646        0.05853940        0.08269374        0.10983209
      72          0.056615        0.000000        0.05979728        0.02194737        0.02360928        0.01460447
      73          0.069507        0.000000        0.00621929        0.01301693        0.00981355        0.01600247
      74          0.086433        0.000000        0.04900101        0.02080369        0.03728344        0.01852146
      75          0.095913        0.000000        0.15863202        0.02519916        0.12393632        0.08188168
      76          0.098855        0.000000        0.15230423        0.11272995        0.05529079        0.03568452
      77          0.103538        0.000000        0.18546683        0.15431102        0.08310981        0.04503798
      78          0.113967        0.000000        0.08505075        0.03563618        0.04136871        0.03279299
      79          0.116363        0.000000        0.14783588        0.04264298        0.11862492        0.06510258
      80          0.119204        0.000000        0.07682041        0.02030251        0.08868849        0.02581626
      81          0.127427        0.000000        0.04098126        0.03959946        0.02810382        0.02513483
      82          0.132695        0.000000        0.03201605        0.03327445        0.02157661        0.03575798
      83          0.138725        0.000000        0.10361039        0.08270881        0.04240763        0.05806763
      84          0.147229        0.000000        0.18630492        0.13713532        0.07398565        0.05540180
      85          0.159280        0.000000        0.18327928        0.00872603        0.19266806        0.07417556
      86          0.172447        0.000000        0.12109990        0.07655090        0.08436767        0.06269608
      87          0.173881        0.000000        0.10680159        0.03815310        0.07200507        0.07715558
      88          0.178887        0.000000        0.05618897        0.03276270        0.02144595        0.02237330
      89          0.186933        0.000000        0.05957502        0.03508063        0.07505930        0.02839700
      90          0.189173        0.000000        0.03164001        0.05379960        0.06130638        0.02471417
      91          0.193023        0.000000        0.05417361        0.05823727        0.06094096        0.02096677
      92          0.196081        0.000000        0.05359221        0.02197194        0.07307553        0.00908221
      93          0.199922        0.000000        0.06228838        0.05180362        0.02477308        0.06635958
      94          0.218296        0.000000        0.05916742        0.07053699        0.05524428        0.05429863
      95          0.219222        0.000000        0.07523723        0.02145887        0.06546096        0.01646592
      96          0.224787        0.000000        0.08084931        0.05368566        0.05688925        0.04929031
      97          0.232831        0.000000        0.07843204        0.05059501        0.04392475        0.01350563
      98          0.240724        0.000000        0.06325068        0.06447247        0.04311831        0.03474554
      99          0.246548        0.000000        0.08487571        0.03370010        0.04529650        0.01805791
     100          0.252093        0.000000        0.00944266        0.02216424        0.01687873        0.03037337
     101          0.256180        0.000000        0.05177974        0.03076615        0.04412272        0.03115783
     102          0.269715        0.000000        0.00984728        0.05724873        0.02056346        0.04843612
     103          0.273729        0.000000        0.03237307        0.04378808        0.05069647        0.06276658
     104          0.274674        0.000000        0.07212813        0.03484303        0.04694738        0.02611665
     105          0.287499        0.000000        0.04246883        0.05351304        0.05643934        0.02718888
     106          0.290608        0.000000        0.09718385        0.04468676        0.05549457        0.04665095
     107          0.297238        0.000000        0.06429435        0.05937123        0.02900403        0.07147979
     108          0.308260        0.000000        0.07088545        0.01690214        0.04128221        0.02428578
     109          0.311442        0.000000        0.08974896        0.06799441        0.05584761        0.01063385
     110          0.319900        0.000000        0.07029103        0.02090311        0.07761672        0.02351925
     111          0.323500        0.000000        0.03013288        0.03957962        0.03046606        0.04720888
