# Projected DOS for atomic kind N at iteration step i = 0, E(Fermi) =    -0.156628 a.u.
#     MO Eigenvalue [a.u.]      Occupation                 s                py                pz                px               d-2               d-1                d0               d+1               d+2
       1         -1.041896        2.000000        0.03274380        0.01577232        0.01448619        0.00030008        0.00021204        0.00097408        0.00001790        0.00000257        0.00021313
       2         -1.030059        2.000000        0.03717587        0.00086810        0.02850368        0.00318236        0.00014834        0.00004952        0.00068185        0.00060551        0.00000566
       3         -0.849503        2.000000        0.31833547        0.00012709        0.01660123        0.00347091        0.00040959        0.00008416        0.00116672        0.00241480        0.00021547
       4         -0.838881        2.000000        0.32074128        0.02063170        0.00353415        0.00061404        0.00152215        0.00138900        0.00025441        0.00000374        0.00019381
       5         -0.831801        2.000000        0.28468144        0.01733351        0.02424610        0.00026011        0.00177621        0.00023193        0.00003813        0.00056855        0.00000524
       6         -0.830559        2.000000        0.28701066        0.00575203        0.03135168        0.00104898        0.00224540        0.00014368        0.00001785        0.00034341        0.00003896
       7         -0.807128        2.000000        0.01524437        0.00731583        0.00387956        0.01073289        0.00005863        0.00021353        0.00013493        0.00026141        0.00005298
       8         -0.763525        2.000000        0.04620041        0.01476833        0.01185496        0.02225500        0.00033553        0.00048511        0.00028390        0.00081150        0.00044835
       9         -0.755978        2.000000        0.05814537        0.01437531        0.01129811        0.01378100        0.00010375        0.00048340        0.00021730        0.00078099        0.00032512
      10         -0.708319        2.000000        0.02802215        0.01066755        0.01462022        0.01408828        0.00040318        0.00068364        0.00062543        0.00051715        0.00023687
      11         -0.687573        2.000000        0.00541743        0.00323921        0.00545210        0.00127476        0.00007783        0.00041718        0.00012281        0.00018069        0.00008403
      12         -0.675556        2.000000        0.00631344        0.01259330        0.00274910        0.01585124        0.00013789        0.00018408        0.00020516        0.00028752        0.00017053
      13         -0.670603        2.000000        0.00827873        0.00988224        0.00255094        0.01115105        0.00005964        0.00018903        0.00012950        0.00023583        0.00017996
      14         -0.658369        2.000000        0.02075385        0.03220946        0.02693360        0.03731603        0.00041793        0.00160104        0.00083957        0.00210537        0.00097845
      15         -0.632622        2.000000        0.03838446        0.01882217        0.04905654        0.01682712        0.00025724        0.00132977        0.00101432        0.00141724        0.00109440
      16         -0.595345        2.000000        0.03073786        0.01714408        0.04674704        0.00288291        0.00048378        0.00083845        0.00087056        0.00018887        0.00033359
      17         -0.579332        2.000000        0.00850875        0.01478766        0.01757843        0.01303328        0.00024300        0.00041955        0.00021455        0.00013336        0.00005408
      18         -0.559693        2.000000        0.00664823        0.04567088        0.02706435        0.05994353        0.00069018        0.00087079        0.00115205        0.00113682        0.00073749
      19         -0.547934        2.000000        0.02233901        0.02901783        0.07526806        0.02064971        0.00052845        0.00275970        0.00130868        0.00127484        0.00075320
      20         -0.542528        2.000000        0.03466561        0.02203353        0.02731653        0.01120514        0.00027655        0.00049378        0.00080384        0.00016119        0.00007909
      21         -0.534463        2.000000        0.01390761        0.07356499        0.02405616        0.06293897        0.00026100        0.00091114        0.00090977        0.00121169        0.00110511
      22         -0.505728        2.000000        0.00342114        0.02787892        0.10475272        0.03465565        0.00130467        0.00170185        0.00267808        0.00124743        0.00145441
      23         -0.495676        2.000000        0.01715381        0.13704401        0.04531625        0.02851117        0.00028008        0.00314398        0.00068759        0.00148885        0.00146241
      24         -0.484124        2.000000        0.00865978        0.12144508        0.06330088        0.04705686        0.00115805        0.00123719        0.00281761        0.00043443        0.00014266
      25         -0.472733        2.000000        0.01029614        0.07982336        0.03516937        0.13397527        0.00061563        0.00033224        0.00122332        0.00091076        0.00155571
      26         -0.465516        2.000000        0.00286775        0.04325009        0.01698083        0.06638266        0.00046279        0.00028411        0.00061164        0.00055050        0.00070785
      27         -0.463489        2.000000        0.00298151        0.11988495        0.07900870        0.05560483        0.00128359        0.00408465        0.00166166        0.00180295        0.00087183
      28         -0.451854        2.000000        0.01556048        0.03330806        0.07876902        0.00987132        0.00036302        0.00306543        0.00045870        0.00054158        0.00071089
      29         -0.446186        2.000000        0.01188831        0.02208660        0.14400266        0.01224276        0.00044435        0.00160137        0.00306269        0.00039861        0.00020221
      30         -0.440228        2.000000        0.00236520        0.10108907        0.08541091        0.09735019        0.00119062        0.00293699        0.00396614        0.00352698        0.00151951
      31         -0.425947        2.000000        0.00028137        0.02377715        0.02487957        0.02623705        0.00045064        0.00009580        0.00183777        0.00103234        0.00106308
      32         -0.417910        2.000000        0.00012718        0.02775265        0.00972512        0.04703172        0.00045389        0.00099380        0.00103965        0.00153616        0.00020497
      33         -0.408790        2.000000        0.00273213        0.06538760        0.02576355        0.04524762        0.00225702        0.00279002        0.00306714        0.00031983        0.00029508
      34         -0.398571        2.000000        0.00838064        0.05160408        0.02027087        0.08238889        0.00167702        0.00103230        0.00288322        0.00058910        0.00087232
      35         -0.392537        2.000000        0.00477274        0.00383754        0.00309546        0.00962795        0.00025701        0.00017030        0.00011474        0.00029330        0.00010031
      36         -0.386944        2.000000        0.00249546        0.01706632        0.00495237        0.02219742        0.00067411        0.00049429        0.00057431        0.00022635        0.00020038
      37         -0.374340        2.000000        0.01054430        0.02654421        0.03225967        0.02681306        0.00089763        0.00069589        0.00056147        0.00077005        0.00073000
      38         -0.363688        2.000000        0.00507441        0.00704927        0.03075262        0.00377691        0.00168112        0.00151361        0.00304207        0.00060702        0.00035790
      39         -0.360016        2.000000        0.00207234        0.02608941        0.00581358        0.01350529        0.00154531        0.00327290        0.00246407        0.00144959        0.00066391
      40         -0.354206        2.000000        0.00229136        0.00699477        0.01575135        0.01746046        0.00120156        0.00056913        0.00338229        0.00099033        0.00020083
      41         -0.349900        2.000000        0.00093918        0.00565074        0.00414390        0.01420861        0.00088850        0.00178093        0.00043254        0.00017480        0.00025991
      42         -0.345981        2.000000        0.00536695        0.02200527        0.01736436        0.03976578        0.00102498        0.00030197        0.00145967        0.00022751        0.00062685
      43         -0.344310        2.000000        0.00073278        0.01301588        0.00795776        0.05331240        0.00055468        0.00109694        0.00037087        0.00050312        0.00081309
      44         -0.335877        2.000000        0.00252808        0.04881737        0.03145957        0.07462997        0.00049578        0.00110016        0.00071132        0.00082571        0.00216620
      45         -0.333907        2.000000        0.00263801        0.05647429        0.00786383        0.06839094        0.00028062        0.00087806        0.00034133        0.00102218        0.00047080
      46         -0.326173        2.000000        0.00192219        0.06778299        0.01536508        0.05073913        0.00086153        0.00069525        0.00025464        0.00072267        0.00118266
      47         -0.312637        2.000000        0.00432373        0.00705767        0.01505619        0.00735259        0.00049122        0.00115079        0.00140622        0.00060556        0.00033959
      48         -0.306717        2.000000        0.00363357        0.00809270        0.01943728        0.00877343        0.00060038        0.00131610        0.00212696        0.00043825        0.00045596
      49         -0.296375        2.000000        0.00152392        0.04586739        0.00623079        0.00889311        0.00105247        0.00136888        0.00015099        0.00024850        0.00001983
      50         -0.292956        2.000000        0.00105486        0.08919789        0.05188383        0.13636044        0.00046533        0.00026769        0.00107392        0.00105777        0.00058514
      51         -0.290429        2.000000        0.00147932        0.07542423        0.09051210        0.12593175        0.00032644        0.00009141        0.00254439        0.00056008        0.00065381
      52         -0.275040        2.000000        0.00253440        0.06601379        0.02706660        0.12093312        0.00010744        0.00141726        0.00056090        0.00045969        0.00457454
      53         -0.253567        2.000000        0.00420138        0.10508220        0.07153585        0.19336993        0.00009975        0.00102755        0.00026449        0.00038290        0.00324334
      54         -0.248839        2.000000        0.11072606        0.20745809        0.32111281        0.02071035        0.00202148        0.00019467        0.00022697        0.00075045        0.00002819
      55         -0.237636        2.000000        0.10090296        0.07827709        0.48369981        0.01085713        0.00258672        0.00002591        0.00012209        0.00053155        0.00000293
      56         -0.227017        2.000000        0.00084069        0.00443022        0.00186872        0.00426770        0.00001461        0.00000187        0.00001377        0.00001586        0.00000568
      57         -0.218961        2.000000        0.00094137        0.07021825        0.02848935        0.10890363        0.00005335        0.00006043        0.00024599        0.00018951        0.00053693
      58         -0.213269        2.000000        0.00022118        0.01873534        0.00965555        0.02007245        0.00002474        0.00007550        0.00011302        0.00001657        0.00030825
      59         -0.209172        2.000000        0.00181576        0.03672811        0.01629174        0.06918890        0.00009714        0.00004679        0.00010602        0.00008561        0.00026130
      60         -0.175659        2.000000        0.00397738        0.07683826        0.03054709        0.13768604        0.00054120        0.00176737        0.00131295        0.00117771        0.00765774
      61         -0.156628        2.000000        0.00229596        0.07244977        0.03900707        0.13399823        0.00050586        0.00137335        0.00145917        0.00122465        0.00506868
      62         -0.093261        0.000000        0.00048527        0.06469761        0.03785015        0.09095075        0.00032732        0.00091251        0.00112195        0.00117724        0.00213956
      63         -0.044460        0.000000        0.00037561        0.02661312        0.01357280        0.03041142        0.00043288        0.00222212        0.00137218        0.00141573        0.00681535
      64         -0.028113        0.000000        0.00018457        0.00104229        0.00084858        0.00221566        0.00012786        0.00027175        0.00061194        0.00018649        0.00039299
      65         -0.020706        0.000000        0.00057481        0.01142419        0.00481124        0.01313365        0.00048729        0.00083518        0.00050395        0.00071507        0.00391624
      66         -0.005371        0.000000        0.00348963        0.02519204        0.00683250        0.03255932        0.00241764        0.00151500        0.00377698        0.00370683        0.01072919
      67         -0.002994        0.000000        0.00560003        0.00825035        0.00186567        0.00506462        0.00140419        0.00005075        0.00057750        0.00074535        0.00204171
      68         -0.000282        0.000000        0.00098684        0.03265569        0.02618059        0.05604423        0.00179861        0.00434876        0.00823783        0.00375442        0.00422565
      69          0.036530        0.000000        0.01417441        0.04582362        0.01620186        0.04772549        0.00633302        0.00276378        0.00076071        0.00130342        0.00674378
      70          0.048626        0.000000        0.17890323        0.00622577        0.04063090        0.02281405        0.00662194        0.00366405        0.00051951        0.00329919        0.00921606
      71          0.048740        0.000000        0.18323762        0.01569138        0.02178579        0.03796949        0.00941568        0.00063418        0.00021365        0.00339537        0.00399510
      72          0.053047        0.000000        0.01143155        0.00854273        0.01683602        0.02025043        0.00304693        0.00229730        0.00610271        0.00233025        0.00152919
      73          0.064926        0.000000        0.00405034        0.03669186        0.01878210        0.03210301        0.00076659        0.00261864        0.00168797        0.00330346        0.00756968
      74          0.090866        0.000000        0.00398858        0.03859650        0.03596090        0.01074191        0.00843506        0.00964970        0.01080884        0.00192966        0.00084629
      75          0.097293        0.000000        0.01087313        0.02231453        0.03671995        0.01234608        0.00643959        0.00470621        0.00854639        0.00136219        0.00034803
      76          0.099391        0.000000        0.00685807        0.05258120        0.01625082        0.02263703        0.00324150        0.00923466        0.01085117        0.00121975        0.00133241
      77          0.100335        0.000000        0.01071537        0.01256395        0.01597637        0.01369996        0.00066343        0.00129109        0.00720480        0.00212184        0.00141338
      78          0.110883        0.000000        0.00438468        0.02232627        0.02893448        0.02346887        0.00310372        0.00189759        0.00921092        0.00156290        0.00147454
      79          0.119850        0.000000        0.00556607        0.01475637        0.00594093        0.00578082        0.00141874        0.00027343        0.00155865        0.00290466        0.00132962
      80          0.121973        0.000000        0.03464083        0.00607069        0.00782714        0.00808545        0.00332190        0.00111096        0.00082871        0.00106405        0.00357508
      81          0.125889        0.000000        0.00358798        0.01480170        0.00504059        0.01983206        0.00302848        0.00338275        0.00439574        0.00422948        0.00425953
      82          0.127010        0.000000        0.02640130        0.01085909        0.00540199        0.01603862        0.00089733        0.00084265        0.00311739        0.00351532        0.00468340
      83          0.139497        0.000000        0.09932918        0.01334492        0.01368657        0.00610009        0.00282795        0.00175504        0.00235959        0.00271933        0.00178619
      84          0.150629        0.000000        0.00937705        0.05653261        0.00513679        0.00694284        0.00255187        0.00758598        0.00626580        0.00049093        0.00076962
      85          0.157644        0.000000        0.01363592        0.01276076        0.02179198        0.02209819        0.00130167        0.00119665        0.01889110        0.00015098        0.00313985
      86          0.168286        0.000000        0.00531030        0.01123533        0.00594604        0.01073932        0.00209439        0.00534910        0.01089406        0.00504315        0.00289848
      87          0.180149        0.000000        0.03449621        0.02373867        0.00568176        0.02139958        0.00722523        0.00424140        0.00583067        0.00021185        0.00057496
      88          0.184385        0.000000        0.02010277        0.01593317        0.01770220        0.03375673        0.00209570        0.00427162        0.00282808        0.01238838        0.00415250
      89          0.188025        0.000000        0.00269880        0.01524817        0.02748392        0.00390769        0.00495412        0.01117225        0.00253808        0.00480536        0.00314326
      90          0.192066        0.000000        0.00586617        0.01829991        0.02825512        0.01286807        0.00141913        0.00878845        0.00172127        0.00857174        0.00317278
      91          0.194342        0.000000        0.01192829        0.02257571        0.03163342        0.01475682        0.00289572        0.00232701        0.00130300        0.00512719        0.00060208
      92          0.197230        0.000000        0.00909259        0.01563387        0.03172519        0.01642257        0.00723040        0.00112100        0.00352754        0.00175007        0.00114022
      93          0.203472        0.000000        0.01352511        0.00508125        0.02871257        0.01640184        0.00481613        0.00565137        0.00126022        0.00238654        0.00151582
      94          0.215871        0.000000        0.01081633        0.01257566        0.02601542        0.01034326        0.00035560        0.01723235        0.00236593        0.00441494        0.00277181
      95          0.218269        0.000000        0.03043876        0.01621628        0.03126378        0.01038034        0.00031356        0.00522959        0.00300291        0.00287713        0.00268691
      96          0.226757        0.000000        0.03348172        0.03178977        0.02353499        0.00937002        0.00140643        0.00176790        0.00900557        0.00479220        0.00130191
      97          0.229095        0.000000        0.02207945        0.02168259        0.02260617        0.01600774        0.00080102        0.00581833        0.00968000        0.00798657        0.00546902
      98          0.237840        0.000000        0.00331927        0.01586066        0.01213371        0.01614776        0.00837957        0.00413904        0.00835286        0.00706357        0.00387239
      99          0.248473        0.000000        0.00218041        0.00523723        0.01025802        0.02157215        0.00954729        0.00175144        0.00540054        0.00526622        0.00168832
     100          0.256630        0.000000        0.00171229        0.01672867        0.01131227        0.02507847        0.00104792        0.00304563        0.00348919        0.00484148        0.00195915
     101          0.257973        0.000000        0.00205336        0.02478359        0.02557126        0.05402352        0.00035526        0.00101676        0.00267643        0.00121743        0.00126166
     102          0.268191        0.000000        0.00262288        0.04558114        0.01604602        0.03453780        0.00215652        0.00460763        0.00689346        0.00589322        0.00591838
     103          0.272890        0.000000        0.00615204        0.03266577        0.05514881        0.08944654        0.00075205        0.00497373        0.00264167        0.00448154        0.00334213
     104          0.278969        0.000000        0.00413144        0.07300682        0.03858043        0.03091184        0.00531667        0.00726134        0.01247649        0.00935399        0.00931697
     105          0.285523        0.000000        0.01138428        0.03580935        0.08225624        0.02915956        0.00180563        0.01586994        0.01078129        0.00465899        0.00604179
     106          0.286181        0.000000        0.00500844        0.03105763        0.04678756        0.04096571        0.00384008        0.01427615        0.01580394        0.00926763        0.01722172
     107          0.298667        0.000000        0.00367679        0.04120799        0.07091593        0.07550732        0.00111614        0.00469060        0.00653550        0.00472126        0.00106350
     108          0.305992        0.000000        0.00272356        0.01973184        0.05007445        0.03474747        0.00160950        0.00584621        0.00849759        0.00172036        0.00415532
     109          0.313165        0.000000        0.04606497        0.04094694        0.07568008        0.01107349        0.00903247        0.00461330        0.00452991        0.00474288        0.00432384
     110          0.316717        0.000000        0.01939902        0.01793329        0.03388171        0.01044714        0.00978672        0.00765913        0.00242386        0.00437779        0.00668463
     111          0.323042        0.000000        0.04755013        0.02590342        0.12313575        0.03730017        0.00628984        0.00463115        0.00861719        0.00515753        0.00438003
