# Projected DOS for atomic kind O at iteration step i = 0, E(Fermi) =    -0.158311 a.u.
#     MO Eigenvalue [a.u.]      Occupation                 s                py                pz                px               d-2               d-1                d0               d+1               d+2
       1         -1.045188        2.000000        0.34751228        0.01909721        0.00631041        0.00483157        0.00058443        0.00059958        0.00005806        0.00089820        0.00000719
       2         -1.030198        2.000000        0.35883297        0.00068406        0.02015412        0.00926066        0.00110285        0.00043708        0.00013780        0.00025492        0.00004799
       3         -0.840844        2.000000        0.06550829        0.00934229        0.00788246        0.00080326        0.00008965        0.00195626        0.00003459        0.00010290        0.00065612
       4         -0.837189        2.000000        0.00781172        0.00082629        0.00582409        0.00188569        0.00002385        0.00072268        0.00006721        0.00009595        0.00025732
       5         -0.833119        2.000000        0.02091797        0.00035659        0.00246171        0.00179296        0.00004192        0.00000048        0.00015392        0.00024915        0.00001074
       6         -0.826922        2.000000        0.05559675        0.00307958        0.01537993        0.00119747        0.00007535        0.00011900        0.00186553        0.00088295        0.00004040
       7         -0.809020        2.000000        0.00127656        0.00577149        0.00574931        0.01429328        0.00017866        0.00040981        0.00027182        0.00085137        0.00020523
       8         -0.765856        2.000000        0.00139889        0.01780324        0.01926551        0.02412555        0.00177428        0.00136423        0.00165331        0.00005848        0.00015618
       9         -0.759614        2.000000        0.00276104        0.00822907        0.01219392        0.01229845        0.00160757        0.00081254        0.00131607        0.00020235        0.00027253
      10         -0.708563        2.000000        0.00125332        0.02097535        0.01775259        0.03215077        0.00077777        0.00144647        0.00096479        0.00175921        0.00040798
      11         -0.692171        2.000000        0.00240284        0.03053129        0.02154907        0.03583531        0.00097272        0.00080990        0.00092958        0.00018388        0.00004414
      12         -0.678382        2.000000        0.01136514        0.00285487        0.00392368        0.00424828        0.00079342        0.00025603        0.00031808        0.00090038        0.00035723
      13         -0.673211        2.000000        0.01029071        0.00022695        0.00062691        0.00018961        0.00036732        0.00024791        0.00007872        0.00096643        0.00031600
      14         -0.657970        2.000000        0.00112464        0.00942992        0.00919366        0.01183886        0.00184726        0.00156424        0.00134153        0.00041951        0.00024231
      15         -0.632602        2.000000        0.00500623        0.00498627        0.00533138        0.00552453        0.00135380        0.00057851        0.00093029        0.00041916        0.00034413
      16         -0.594947        2.000000        0.00426454        0.00972276        0.02050034        0.02187029        0.00051958        0.00073578        0.00061191        0.00117376        0.00029873
      17         -0.579722        2.000000        0.00021835        0.05793480        0.06128397        0.06516490        0.00046084        0.00143913        0.00075121        0.00019407        0.00021940
      18         -0.559235        2.000000        0.00375440        0.05214424        0.05221991        0.03783508        0.00080280        0.00034398        0.00065094        0.00073770        0.00045978
      19         -0.550580        2.000000        0.00716407        0.01502057        0.02244308        0.00015550        0.00076745        0.00037487        0.00041211        0.00064935        0.00022061
      20         -0.544458        2.000000        0.02276976        0.01093690        0.02210863        0.00500530        0.00052182        0.00024669        0.00007781        0.00042961        0.00004860
      21         -0.533104        2.000000        0.03044344        0.00783485        0.01579993        0.00181481        0.00029390        0.00016325        0.00002894        0.00042345        0.00009109
      22         -0.502590        2.000000        0.00644650        0.03196637        0.06144893        0.01267174        0.00015428        0.00062656        0.00076231        0.00015707        0.00012021
      23         -0.495173        2.000000        0.00477851        0.04126862        0.03973805        0.00392354        0.00043991        0.00064215        0.00044404        0.00162894        0.00085618
      24         -0.479858        2.000000        0.00836879        0.00945503        0.04728718        0.03436407        0.00056971        0.00028889        0.00074747        0.00101663        0.00018938
      25         -0.470911        2.000000        0.00996236        0.04260640        0.02596351        0.05220203        0.00095092        0.00055506        0.00045270        0.00024096        0.00009647
      26         -0.463545        2.000000        0.00590035        0.00203214        0.00872880        0.00229795        0.00064397        0.00005336        0.00005453        0.00008203        0.00001837
      27         -0.462386        2.000000        0.00056405        0.02008395        0.02857471        0.00693267        0.00059255        0.00039315        0.00055882        0.00000586        0.00005501
      28         -0.452949        2.000000        0.02772305        0.05517705        0.04817842        0.01044640        0.00049368        0.00040912        0.00001183        0.00004742        0.00001725
      29         -0.446536        2.000000        0.01899218        0.00678666        0.04015112        0.00702005        0.00050392        0.00019823        0.00004181        0.00022184        0.00014736
      30         -0.437029        2.000000        0.00535819        0.00134380        0.01339026        0.00550025        0.00034570        0.00006788        0.00035213        0.00076887        0.00027881
      31         -0.428973        2.000000        0.00012467        0.14771146        0.08968933        0.12489653        0.00036732        0.00003168        0.00122069        0.00100292        0.00247873
      32         -0.418135        2.000000        0.00014081        0.12436987        0.04676208        0.18891195        0.00018480        0.00162717        0.00161978        0.00081162        0.00094696
      33         -0.405188        2.000000        0.00377517        0.01194786        0.01483799        0.03825836        0.00022869        0.00015391        0.00017398        0.00054090        0.00019606
      34         -0.398899        2.000000        0.00293545        0.02371364        0.01424739        0.02734126        0.00024658        0.00020830        0.00014226        0.00027860        0.00003789
      35         -0.393450        2.000000        0.00077468        0.00699836        0.00074004        0.02286095        0.00010442        0.00001846        0.00003113        0.00012426        0.00002871
      36         -0.391492        2.000000        0.00053403        0.00174963        0.00134705        0.00129069        0.00002347        0.00008042        0.00001776        0.00017746        0.00007396
      37         -0.374488        2.000000        0.00820374        0.05352119        0.01691342        0.03509673        0.00026860        0.00005572        0.00021724        0.00090063        0.00029084
      38         -0.369405        2.000000        0.02223894        0.03683563        0.04759519        0.06581595        0.00066318        0.00093355        0.00010021        0.00124254        0.00035464
      39         -0.360841        2.000000        0.00394502        0.00761454        0.06060106        0.00707776        0.00015885        0.00037906        0.00046674        0.00021602        0.00017009
      40         -0.359569        2.000000        0.00641380        0.04750968        0.03717520        0.00459959        0.00048206        0.00091807        0.00014930        0.00015338        0.00008322
      41         -0.349067        2.000000        0.00787946        0.03403971        0.01143204        0.00279160        0.00003021        0.00031346        0.00205648        0.00128402        0.00077413
      42         -0.345092        2.000000        0.00746251        0.00130451        0.02799088        0.00994515        0.00040170        0.00069525        0.00009038        0.00080259        0.00169992
      43         -0.340610        2.000000        0.01035273        0.00447622        0.00764242        0.00836333        0.00094553        0.00053213        0.00027874        0.00111492        0.00071189
      44         -0.334074        2.000000        0.00041338        0.00496087        0.00524936        0.03396941        0.00031768        0.00021528        0.00054251        0.00017126        0.00109324
      45         -0.331581        2.000000        0.00130888        0.00678770        0.02336060        0.02043080        0.00051065        0.00059566        0.00022173        0.00058585        0.00022666
      46         -0.325397        2.000000        0.00107445        0.01605520        0.01106709        0.06935704        0.00015612        0.00000260        0.00003994        0.00001633        0.00006061
      47         -0.313944        2.000000        0.00245336        0.01590008        0.03504783        0.02069541        0.00073844        0.00056657        0.00013071        0.00087971        0.00021042
      48         -0.308642        2.000000        0.00835103        0.04573640        0.07781959        0.03684027        0.00047679        0.00077187        0.00024789        0.00095812        0.00021415
      49         -0.298739        2.000000        0.00983520        0.01766809        0.05257568        0.05877517        0.00014708        0.00008770        0.00017610        0.00091995        0.00013804
      50         -0.294540        2.000000        0.00183787        0.15451991        0.03479287        0.04020906        0.00035803        0.00035032        0.00234184        0.00014719        0.00029427
      51         -0.290068        2.000000        0.00031605        0.07039477        0.01351836        0.08989390        0.00026697        0.00009472        0.00036672        0.00061254        0.00029546
      52         -0.273544        2.000000        0.00009874        0.00149287        0.00034336        0.00033024        0.00080271        0.00106065        0.00241347        0.00071570        0.00394196
      53         -0.254111        2.000000        0.00015647        0.00145910        0.00051613        0.00089472        0.00093899        0.00064887        0.00276076        0.00112722        0.00319641
      54         -0.251164        2.000000        0.00158719        0.01843901        0.02835819        0.00023864        0.00053750        0.00111736        0.00038767        0.00007929        0.00004384
      55         -0.235989        2.000000        0.00207574        0.00376947        0.04442673        0.00467302        0.00013172        0.00085258        0.00103117        0.00000203        0.00000591
      56         -0.230401        2.000000        0.00034567        0.00027742        0.00119429        0.00103847        0.00007315        0.00027577        0.00007654        0.00016095        0.00111034
      57         -0.221504        2.000000        0.00001167        0.02127763        0.01250986        0.03181460        0.00006614        0.00029444        0.00003975        0.00015512        0.00297596
      58         -0.215579        2.000000        0.00003995        0.03377215        0.02140630        0.03237742        0.00015270        0.00060132        0.00043129        0.00017223        0.00216982
      59         -0.209290        2.000000        0.00006784        0.02999318        0.01803735        0.03137589        0.00002508        0.00018534        0.00007770        0.00007399        0.00072177
      60         -0.176502        2.000000        0.00003735        0.00294920        0.00144685        0.00386179        0.00054103        0.00036976        0.00128000        0.00052025        0.00092840
      61         -0.158311        2.000000        0.00006507        0.00112969        0.00036494        0.00052034        0.00033111        0.00036287        0.00082205        0.00031951        0.00115740
      62         -0.093751        0.000000        0.00016634        0.01629596        0.00816171        0.01648668        0.00035302        0.00049121        0.00127701        0.00072468        0.00043454
      63         -0.043058        0.000000        0.00003644        0.00445043        0.00420451        0.00578179        0.00085125        0.00074294        0.00308124        0.00118378        0.00158677
      64         -0.028867        0.000000        0.00006988        0.00950764        0.00533456        0.01211403        0.00009153        0.00125616        0.00016539        0.00062948        0.00631863
      65         -0.018530        0.000000        0.00003378        0.03635206        0.02074751        0.04474478        0.00013750        0.00193395        0.00123618        0.00093832        0.00638596
      66         -0.006935        0.000000        0.00088029        0.01233826        0.00784089        0.00971843        0.00029346        0.00009015        0.00032713        0.00037528        0.00360567
      67         -0.002086        0.000000        0.01220344        0.00642616        0.00678295        0.00742631        0.00464219        0.00221708        0.00027114        0.00012055        0.00069683
      68         -0.001530        0.000000        0.00559263        0.00313560        0.00314362        0.00291341        0.00047939        0.00027164        0.00425285        0.00112538        0.00056949
      69          0.035780        0.000000        0.02822493        0.00867311        0.01975555        0.01848076        0.00403553        0.00009513        0.00470110        0.00207279        0.00049315
      70          0.041614        0.000000        0.00020011        0.00062582        0.00019413        0.00084228        0.00010438        0.00014255        0.00013569        0.00048095        0.00019037
      71          0.050011        0.000000        0.00653610        0.00027529        0.00026801        0.00044549        0.00006942        0.00000949        0.00001876        0.00003587        0.00014293
      72          0.054503        0.000000        0.05547939        0.01239972        0.00162804        0.01198853        0.00011041        0.00302701        0.00201261        0.00283690        0.00065844
      73          0.067731        0.000000        0.00535350        0.00509082        0.00692816        0.01048849        0.00158031        0.00057207        0.00488681        0.00217407        0.00118625
      74          0.086176        0.000000        0.01454546        0.00054572        0.00250098        0.00185173        0.00092061        0.00134867        0.00023525        0.00001196        0.00008035
      75          0.094792        0.000000        0.03181432        0.01926835        0.00163083        0.01941276        0.00328070        0.00020592        0.00185390        0.00021946        0.00011412
      76          0.096027        0.000000        0.08037658        0.00816758        0.00536016        0.00995985        0.00022604        0.00268113        0.00037834        0.00263291        0.00144304
      77          0.101871        0.000000        0.01416816        0.00749418        0.00439619        0.02227918        0.00070372        0.00095466        0.00113491        0.00072741        0.00148294
      78          0.112846        0.000000        0.05483077        0.00255635        0.00864135        0.00090149        0.00082504        0.00221265        0.00140566        0.00031299        0.00047964
      79          0.115466        0.000000        0.01038398        0.00280520        0.00130291        0.00034923        0.00005250        0.00021397        0.00010712        0.00000388        0.00124234
      80          0.121123        0.000000        0.02097727        0.00732431        0.00029079        0.00116480        0.00000302        0.00147468        0.00191346        0.00043432        0.00267340
      81          0.124004        0.000000        0.07618982        0.00690417        0.00245613        0.00337044        0.00312974        0.00129589        0.00018372        0.00017350        0.00113301
      82          0.130094        0.000000        0.01096341        0.00306668        0.00044272        0.00481680        0.00060142        0.00147385        0.00014605        0.00121401        0.00574156
      83          0.136712        0.000000        0.00199892        0.00633450        0.00344993        0.00496558        0.00035869        0.00109641        0.00126792        0.00158914        0.00069971
      84          0.151513        0.000000        0.00093671        0.00216886        0.00383875        0.00034664        0.00057625        0.00086004        0.00032271        0.00068733        0.00047689
      85          0.156395        0.000000        0.00037444        0.00046335        0.00206631        0.00235071        0.00086508        0.00014300        0.00033224        0.00013208        0.00001226
      86          0.170927        0.000000        0.00029245        0.01380600        0.01999868        0.00374890        0.00198546        0.00272112        0.00255285        0.00018332        0.00018830
      87          0.172722        0.000000        0.00094086        0.02150493        0.01513288        0.00633760        0.00385110        0.00150848        0.00271219        0.00058398        0.00005644
      88          0.180667        0.000000        0.00081590        0.01340923        0.01768716        0.01847331        0.00738485        0.00578709        0.00590723        0.00084220        0.00136398
      89          0.187415        0.000000        0.00317450        0.00199846        0.00505132        0.00204838        0.00069224        0.00699530        0.00268408        0.00085033        0.00099940
      90          0.191524        0.000000        0.00550902        0.00964431        0.00630183        0.00646930        0.00074189        0.00579268        0.00472279        0.00105903        0.00097003
      91          0.194093        0.000000        0.00136594        0.00869416        0.02401119        0.00804429        0.00010305        0.00217919        0.00193755        0.00204930        0.00024178
      92          0.195128        0.000000        0.00058569        0.01395279        0.01906838        0.01677549        0.00319737        0.00214712        0.00281727        0.00087941        0.00042620
      93          0.199112        0.000000        0.00029185        0.01153595        0.00618498        0.00619737        0.00202988        0.00388565        0.00316951        0.00049936        0.00034269
      94          0.213624        0.000000        0.00327957        0.00798397        0.00688162        0.00569843        0.00516050        0.00051454        0.00092736        0.00065304        0.00001641
      95          0.218878        0.000000        0.00381788        0.01120708        0.01733895        0.01278964        0.00836284        0.00366686        0.00191833        0.00230299        0.00201876
      96          0.222350        0.000000        0.00696097        0.00235610        0.02072494        0.02819862        0.00445130        0.00090189        0.00095572        0.00397371        0.00104376
      97          0.226779        0.000000        0.00085753        0.02836132        0.02586389        0.01776794        0.00969666        0.00296362        0.00725485        0.00464535        0.00270229
      98          0.239706        0.000000        0.00116819        0.00248089        0.00270545        0.00129012        0.00409841        0.00098335        0.00285265        0.00018797        0.00066871
      99          0.250708        0.000000        0.00238265        0.00770476        0.04305918        0.01203903        0.00455530        0.00397090        0.00054691        0.00011503        0.00119071
     100          0.254223        0.000000        0.00118556        0.00713952        0.03182543        0.00342929        0.00193307        0.00155535        0.00129965        0.00292663        0.00036965
     101          0.254746        0.000000        0.00273291        0.02128834        0.00340320        0.00664727        0.00173808        0.00157280        0.00086197        0.00265017        0.00087888
     102          0.267204        0.000000        0.00458385        0.00695652        0.00965836        0.00691750        0.00052098        0.00163401        0.00217586        0.00188653        0.00003233
     103          0.272124        0.000000        0.00037636        0.00239442        0.01931469        0.00158723        0.00028527        0.00091608        0.00181163        0.00223186        0.00001881
     104          0.274938        0.000000        0.00042949        0.01448804        0.00888137        0.00600829        0.00238257        0.00409769        0.00080446        0.00184309        0.00222279
     105          0.283072        0.000000        0.00162652        0.00453450        0.00166371        0.00915791        0.00113359        0.00404557        0.00092257        0.00192957        0.00014146
     106          0.288156        0.000000        0.00098123        0.00326825        0.00980131        0.00024670        0.00046445        0.01195273        0.00340611        0.00068022        0.00017825
     107          0.298750        0.000000        0.00001831        0.00124645        0.00372884        0.00284633        0.00074586        0.00219725        0.00307865        0.00134977        0.00120640
     108          0.305920        0.000000        0.01699170        0.00573796        0.00722700        0.00727913        0.00230759        0.00282619        0.00042069        0.00390879        0.00066643
     109          0.312300        0.000000        0.00249687        0.00387241        0.00762828        0.00416052        0.00393235        0.00547161        0.00684568        0.00013263        0.00028945
     110          0.318458        0.000000        0.00985211        0.00232591        0.00838479        0.00699473        0.00300339        0.01004265        0.00467484        0.00113532        0.00081728
     111          0.319410        0.000000        0.00042281        0.00475551        0.00659994        0.00155169        0.00158112        0.00423041        0.00199671        0.00011531        0.00044858
