# Projected DOS for atomic kind H at iteration step i = 0, E(Fermi) =    -0.161576 a.u.
#     MO Eigenvalue [a.u.]      Occupation                 s                py                pz                px
       1         -1.017702        2.000000        0.00309260        0.00136308        0.00224418        0.00057770
       2         -1.016578        2.000000        0.00371281        0.00114577        0.00332446        0.00044934
       3         -0.855781        2.000000        0.18814299        0.05934417        0.03991819        0.01430323
       4         -0.853136        2.000000        0.19122291        0.01324242        0.05615602        0.04516732
       5         -0.847332        2.000000        0.00556537        0.00121296        0.00263037        0.00147913
       6         -0.836232        2.000000        0.00568302        0.00275956        0.00145149        0.00114166
       7         -0.814513        2.000000        0.03548016        0.00735604        0.01106157        0.00665780
       8         -0.763697        2.000000        0.07135876        0.01982124        0.01181499        0.00726137
       9         -0.755914        2.000000        0.07282886        0.00895787        0.02102993        0.00979532
      10         -0.707241        2.000000        0.03899698        0.00648458        0.00795120        0.00525640
      11         -0.680703        2.000000        0.07507145        0.01131121        0.00968168        0.00890310
      12         -0.673004        2.000000        0.10653326        0.00990084        0.02128879        0.00663338
      13         -0.669288        2.000000        0.09546510        0.01508428        0.01166233        0.00678478
      14         -0.660694        2.000000        0.05544914        0.00824295        0.00464811        0.00680878
      15         -0.637946        2.000000        0.06535483        0.00861293        0.00650658        0.00685770
      16         -0.594174        2.000000        0.05953864        0.00555505        0.00641205        0.00320225
      17         -0.575119        2.000000        0.07527289        0.00479075        0.00638969        0.00436524
      18         -0.557545        2.000000        0.06883806        0.00642916        0.00359607        0.00723314
      19         -0.548943        2.000000        0.08128327        0.00770044        0.00727257        0.00374772
      20         -0.539677        2.000000        0.10636998        0.00445394        0.01088172        0.00086782
      21         -0.536184        2.000000        0.10199072        0.00655176        0.00618585        0.00426285
      22         -0.503786        2.000000        0.07103148        0.00763809        0.00333371        0.00653996
      23         -0.494435        2.000000        0.09109056        0.00329658        0.00642421        0.00178636
      24         -0.485194        2.000000        0.12394106        0.00311675        0.00926704        0.00320534
      25         -0.475794        2.000000        0.09906460        0.00394160        0.00402952        0.00536559
      26         -0.468709        2.000000        0.13787867        0.00501258        0.00255284        0.00785571
      27         -0.467817        2.000000        0.16741915        0.00372846        0.00505407        0.00399388
      28         -0.448127        2.000000        0.16534198        0.00199900        0.00296834        0.00212612
      29         -0.444026        2.000000        0.17432088        0.00428326        0.00972423        0.00163748
      30         -0.441292        2.000000        0.17366951        0.00534937        0.00707087        0.00216633
      31         -0.415768        2.000000        0.00482276        0.00108394        0.00105378        0.00084823
      32         -0.412858        2.000000        0.00175595        0.00074414        0.00057928        0.00137912
      33         -0.407270        2.000000        0.13626212        0.00183339        0.00179021        0.00391434
      34         -0.399886        2.000000        0.10093329        0.00265344        0.00224507        0.00483202
      35         -0.393425        2.000000        0.22765211        0.00189123        0.00266523        0.00086709
      36         -0.383855        2.000000        0.25681857        0.00218374        0.00151174        0.00088105
      37         -0.378396        2.000000        0.06708363        0.00212925        0.00259392        0.00275522
      38         -0.365708        2.000000        0.07486011        0.00426641        0.00592787        0.00370148
      39         -0.360532        2.000000        0.10846774        0.00314633        0.00335218        0.00190195
      40         -0.354216        2.000000        0.03117956        0.00446754        0.00562456        0.00583257
      41         -0.350851        2.000000        0.08387269        0.00291396        0.00241882        0.00313433
      42         -0.348400        2.000000        0.11043818        0.00310188        0.00144454        0.00384014
      43         -0.342408        2.000000        0.07701200        0.00486328        0.00197468        0.01078976
      44         -0.338803        2.000000        0.07026080        0.00200067        0.00139655        0.01233246
      45         -0.335717        2.000000        0.07532777        0.00723470        0.00229010        0.00613140
      46         -0.327896        2.000000        0.02526560        0.01988909        0.00304044        0.00910236
      47         -0.310428        2.000000        0.12913775        0.00055000        0.00047597        0.00083555
      48         -0.301649        2.000000        0.13287541        0.00051021        0.00097342        0.00231810
      49         -0.296535        2.000000        0.01374350        0.00288906        0.00075262        0.00272264
      50         -0.295845        2.000000        0.09908471        0.00141107        0.00046206        0.00058031
      51         -0.292707        2.000000        0.00313685        0.00233396        0.00242135        0.00542525
      52         -0.277163        2.000000        0.00165739        0.01081413        0.00431404        0.01553778
      53         -0.258154        2.000000        0.00171125        0.01388848        0.00540739        0.01869921
      54         -0.241702        2.000000        0.01513165        0.00184813        0.00064372        0.00068820
      55         -0.238942        2.000000        0.01536250        0.00089288        0.00031543        0.00183182
      56         -0.224884        2.000000        0.00081064        0.00863593        0.00945066        0.00797670
      57         -0.220934        2.000000        0.00153260        0.01012513        0.00620018        0.01602403
      58         -0.209796        2.000000        0.00046754        0.01494644        0.00412636        0.01955831
      59         -0.206382        2.000000        0.00128907        0.00948070        0.00878240        0.01777211
      60         -0.177216        2.000000        0.00330615        0.01325723        0.00688732        0.02378799
      61         -0.161576        2.000000        0.00275384        0.01058809        0.00640850        0.01833479
      62         -0.088439        0.000000        0.00094839        0.00690850        0.00460494        0.00758777
      63         -0.046532        0.000000        0.00200735        0.01508786        0.00994380        0.02084243
      64         -0.027771        0.000000        0.00291309        0.01928537        0.00934234        0.03086782
      65         -0.021029        0.000000        0.00341323        0.01354727        0.00886875        0.02482418
      66         -0.003386        0.000000        0.01778946        0.00464024        0.00446289        0.00822458
      67         -0.002915        0.000000        0.00823983        0.01114155        0.00997064        0.01812597
      68          0.004102        0.000000        0.00913805        0.01183191        0.01643074        0.01791276
      69          0.040232        0.000000        0.05276289        0.01410415        0.02160025        0.02537233
      70          0.046754        0.000000        0.24344565        0.05457292        0.08518697        0.11375787
      71          0.049886        0.000000        0.20139225        0.09355956        0.09421410        0.02760278
      72          0.051621        0.000000        0.07426200        0.02794637        0.01633659        0.01379317
      73          0.065353        0.000000        0.01917992        0.01398433        0.01319525        0.02273284
      74          0.084912        0.000000        0.10239637        0.06328668        0.07043644        0.02264742
      75          0.092679        0.000000        0.14191885        0.07607229        0.09577573        0.04569398
      76          0.099716        0.000000        0.18345029        0.12236886        0.08648213        0.05260240
      77          0.107656        0.000000        0.12435516        0.05700789        0.08451245        0.04527401
      78          0.108115        0.000000        0.14026474        0.04184184        0.10776677        0.05821417
      79          0.113017        0.000000        0.13940119        0.05826852        0.09067541        0.02850415
      80          0.119906        0.000000        0.05095150        0.02805784        0.03190617        0.02982952
      81          0.124964        0.000000        0.03517701        0.03809145        0.01591726        0.04101450
      82          0.135143        0.000000        0.05908703        0.03390867        0.02751590        0.05167621
      83          0.142248        0.000000        0.04281102        0.03102786        0.02158907        0.06193464
      84          0.149995        0.000000        0.21850745        0.15836231        0.10596634        0.02109053
      85          0.159187        0.000000        0.17056980        0.03279489        0.18930659        0.05042274
      86          0.167614        0.000000        0.14617985        0.06266500        0.06141860        0.08221644
      87          0.173707        0.000000        0.09698136        0.04902830        0.06514897        0.06323656
      88          0.175745        0.000000        0.08363473        0.04122414        0.04355277        0.02729501
      89          0.186041        0.000000        0.07430244        0.03779571        0.05532650        0.03376507
      90          0.188486        0.000000        0.04052466        0.02348146        0.02495430        0.01851579
      91          0.192078        0.000000        0.03474484        0.06820164        0.07190036        0.02346145
      92          0.195776        0.000000        0.04127787        0.02919904        0.09260175        0.03203517
      93          0.206517        0.000000        0.06275496        0.08353475        0.02645487        0.05717355
      94          0.207589        0.000000        0.07507685        0.04707878        0.02703579        0.05924948
      95          0.219328        0.000000        0.08628631        0.05116593        0.06264779        0.01672181
      96          0.226428        0.000000        0.07121777        0.02519260        0.04307891        0.02592328
      97          0.229807        0.000000        0.07893791        0.02364907        0.09612946        0.02566417
      98          0.232946        0.000000        0.04732344        0.04347567        0.05669509        0.04502462
      99          0.242783        0.000000        0.04123106        0.02950058        0.05951743        0.03525118
     100          0.253535        0.000000        0.05668606        0.05600949        0.01935210        0.05050838
     101          0.257931        0.000000        0.01906633        0.01750592        0.01763686        0.03611332
     102          0.267907        0.000000        0.04846143        0.08893761        0.05527254        0.03471147
     103          0.273078        0.000000        0.01529848        0.04213380        0.01465680        0.06671726
     104          0.275791        0.000000        0.03852037        0.02907631        0.01443032        0.02361146
     105          0.283886        0.000000        0.07765709        0.06024394        0.05765310        0.03753325
     106          0.286251        0.000000        0.07037671        0.04699097        0.05099259        0.04814986
     107          0.295265        0.000000        0.04664412        0.02899004        0.04318727        0.05642693
     108          0.308923        0.000000        0.08409032        0.01947493        0.06714982        0.00914633
     109          0.311565        0.000000        0.10535653        0.05881619        0.05629056        0.01081315
     110          0.314671        0.000000        0.04832874        0.04013713        0.03958910        0.02063164
     111          0.323519        0.000000        0.05125310        0.04001040        0.04827974        0.01906694
