# Projected DOS for atomic kind C at iteration step i = 0, E(Fermi) =    -0.159534 a.u.
#     MO Eigenvalue [a.u.]      Occupation                 s                py                pz                px               d-2               d-1                d0               d+1               d+2
       1         -1.022597        2.000000        0.15223416        0.05150819        0.10689294        0.13382551        0.02192662        0.01386493        0.00873912        0.02954850        0.00607709
       2         -1.018796        2.000000        0.15574100        0.14492656        0.06170211        0.08364520        0.03876181        0.01741705        0.01178550        0.00636679        0.00306318
       3         -0.859365        2.000000        0.15798052        0.03199184        0.07951366        0.03285418        0.00487877        0.00827534        0.01453204        0.01844530        0.00099025
       4         -0.854457        2.000000        0.14544139        0.05953615        0.05577643        0.02597659        0.01400450        0.01838794        0.00634259        0.00161616        0.00425973
       5         -0.846216        2.000000        0.12976757        0.06149096        0.17893287        0.07843317        0.03432297        0.03097878        0.01959299        0.01789706        0.00605586
       6         -0.833144        2.000000        0.14007396        0.14066205        0.09942710        0.06577448        0.03968057        0.01184064        0.02185783        0.02550309        0.00745115
       7         -0.812042        2.000000        0.31320493        0.12380611        0.06282469        0.14211829        0.01440995        0.01270733        0.00207581        0.01240188        0.00105500
       8         -0.762677        2.000000        0.34975913        0.06824224        0.16971154        0.11297865        0.00871688        0.01041028        0.00239538        0.00525456        0.00376443
       9         -0.754421        2.000000        0.34801346        0.15250072        0.11247627        0.09178183        0.00892894        0.00453674        0.00883417        0.00873986        0.00136831
      10         -0.707073        2.000000        0.35498821        0.12230547        0.06985413        0.15535069        0.00746034        0.01227243        0.00728789        0.00906377        0.00571628
      11         -0.679949        2.000000        0.32264919        0.13990846        0.15125259        0.07628319        0.01115198        0.01252066        0.01104482        0.01499272        0.00765875
      12         -0.672457        2.000000        0.37035861        0.09846864        0.15289603        0.08735734        0.01338424        0.02252129        0.01532226        0.01340871        0.00472645
      13         -0.668614        2.000000        0.34610785        0.12237460        0.13934290        0.07633913        0.01570291        0.01378459        0.01702913        0.02027680        0.00777227
      14         -0.659583        2.000000        0.26936758        0.08619131        0.11855472        0.07866648        0.01406208        0.02027913        0.01528075        0.02460599        0.01483224
      15         -0.636312        2.000000        0.36448143        0.09510062        0.08873896        0.09719151        0.01502382        0.02086589        0.01990641        0.02206578        0.00954012
      16         -0.594056        2.000000        0.21924051        0.17034094        0.08160292        0.21272616        0.00397953        0.01165870        0.00684297        0.01283674        0.00595667
      17         -0.574755        2.000000        0.21749492        0.15594983        0.15750758        0.13790751        0.00577100        0.00523775        0.00520146        0.00504474        0.00258834
      18         -0.556826        2.000000        0.19520873        0.13581697        0.17404572        0.09557577        0.00298290        0.00258310        0.00328773        0.00309022        0.00098969
      19         -0.550231        2.000000        0.23292226        0.15057973        0.15569638        0.07535357        0.00564010        0.00675731        0.00363335        0.00469511        0.00286299
      20         -0.540723        2.000000        0.17583008        0.09494161        0.31445826        0.08279657        0.00651322        0.00625715        0.00726209        0.00884411        0.00338689
      21         -0.535959        2.000000        0.17053645        0.15842046        0.23469296        0.06203044        0.00936697        0.00842040        0.00614842        0.00267598        0.00166400
      22         -0.506084        2.000000        0.13012374        0.12561120        0.17723436        0.11527351        0.00571566        0.00662875        0.00708134        0.00812894        0.00374721
      23         -0.494468        2.000000        0.08061947        0.13642382        0.19360533        0.09326113        0.00818520        0.00800782        0.00751472        0.00565496        0.00268965
      24         -0.484371        2.000000        0.03642421        0.10988706        0.17073661        0.07063724        0.00706065        0.01056544        0.00806697        0.00396962        0.00179661
      25         -0.477392        2.000000        0.13048722        0.10469904        0.14941088        0.06230398        0.00995045        0.01592637        0.01094433        0.01303023        0.00613256
      26         -0.468689        2.000000        0.09682812        0.11518695        0.25042030        0.05657237        0.00565340        0.00776992        0.00682629        0.01193233        0.00514383
      27         -0.466548        2.000000        0.11501012        0.09710144        0.08809372        0.10470503        0.00937095        0.01140768        0.01378540        0.00911902        0.00326239
      28         -0.448651        2.000000        0.07006657        0.13424601        0.10316954        0.08925961        0.01622363        0.01195322        0.01369101        0.00742845        0.00302844
      29         -0.443162        2.000000        0.06442085        0.16727901        0.13751204        0.11333747        0.01480872        0.01659319        0.01273675        0.00929561        0.00463993
      30         -0.441405        2.000000        0.06384070        0.13584332        0.17994169        0.17159840        0.01441957        0.01437867        0.01905029        0.01166923        0.00395789
      31         -0.416674        2.000000        0.00167316        0.18449576        0.11054448        0.22171938        0.00410447        0.00501312        0.01187031        0.00352930        0.01517195
      32         -0.413788        2.000000        0.00150673        0.18817986        0.08282825        0.22779469        0.00398526        0.00668699        0.00656238        0.00638972        0.02390550
      33         -0.406571        2.000000        0.06698029        0.17252705        0.10437383        0.19205614        0.01052341        0.01320195        0.01278048        0.00839595        0.00551970
      34         -0.400052        2.000000        0.02722809        0.16236396        0.17421234        0.18843756        0.00914854        0.01115834        0.01192722        0.01476079        0.01001882
      35         -0.392910        2.000000        0.06046955        0.06988964        0.42080983        0.09694446        0.00385539        0.00615308        0.02508056        0.01750217        0.00539059
      36         -0.386942        2.000000        0.06483385        0.30333750        0.21091042        0.04459911        0.00288306        0.03065933        0.00308373        0.01073635        0.01682164
      37         -0.378452        2.000000        0.03067520        0.17771725        0.20716371        0.18919610        0.00910833        0.01399924        0.01604003        0.01588087        0.00943410
      38         -0.364337        2.000000        0.01978757        0.26994237        0.22994699        0.15831087        0.00505405        0.01496534        0.00908109        0.00944623        0.00492089
      39         -0.359871        2.000000        0.01214029        0.17416732        0.27029127        0.24582260        0.00378860        0.01198066        0.00592192        0.01392272        0.01205363
      40         -0.351911        2.000000        0.00813439        0.33593078        0.14187047        0.22665388        0.00656552        0.01182024        0.01214515        0.01195148        0.00849951
      41         -0.349012        2.000000        0.01882385        0.18510854        0.24531593        0.15444192        0.01088870        0.02225674        0.01260386        0.00894609        0.01319184
      42         -0.347421        2.000000        0.02127039        0.16853177        0.22952307        0.17880462        0.01441595        0.00963185        0.01002728        0.01739709        0.01616916
      43         -0.341589        2.000000        0.01001185        0.15425984        0.15328280        0.30865813        0.01036110        0.01956023        0.00599435        0.00657578        0.01658755
      44         -0.338281        2.000000        0.01536989        0.20595222        0.13637420        0.21669642        0.00737071        0.01126600        0.02207520        0.01233299        0.01476376
      45         -0.334778        2.000000        0.02180823        0.18919612        0.17651738        0.23762787        0.02296265        0.00859129        0.01507189        0.01530124        0.01113307
      46         -0.328326        2.000000        0.00624608        0.19017002        0.11218787        0.23308520        0.00415282        0.01169634        0.01154631        0.01294145        0.03185560
      47         -0.309257        2.000000        0.02543209        0.14999322        0.10610815        0.16023868        0.01217345        0.01737507        0.01350995        0.01270355        0.00707276
      48         -0.301952        2.000000        0.01605434        0.07088840        0.28351652        0.11839730        0.01785272        0.00735763        0.03261148        0.02044980        0.00480523
      49         -0.296332        2.000000        0.00137959        0.12933323        0.04472516        0.16192623        0.00608673        0.02347545        0.02789274        0.01787069        0.01836026
      50         -0.294866        2.000000        0.01936029        0.23192557        0.08273289        0.08414701        0.00668870        0.03104905        0.00708109        0.01530114        0.01343095
      51         -0.291685        2.000000        0.00103471        0.09704041        0.09499403        0.16098675        0.00910034        0.00478078        0.02564164        0.01953393        0.03362477
      52         -0.276892        2.000000        0.00100548        0.22423261        0.15325920        0.28567919        0.00583621        0.01021659        0.02033916        0.01503783        0.03385299
      53         -0.257039        2.000000        0.00124560        0.16303833        0.09545488        0.20929699        0.00586294        0.01069919        0.02547496        0.01738267        0.04369558
      54         -0.241440        2.000000        0.05117104        0.03332218        0.09031900        0.02437171        0.01009043        0.02285845        0.03463253        0.00495506        0.00431957
      55         -0.240570        2.000000        0.05272046        0.05083423        0.07188734        0.02646136        0.00819487        0.03261900        0.01822481        0.00383360        0.00920555
      56         -0.223788        2.000000        0.00162828        0.13848651        0.15885656        0.14595277        0.01548190        0.00777598        0.04958523        0.01211604        0.01527986
      57         -0.220276        2.000000        0.00108946        0.18616514        0.13811675        0.23035808        0.00707272        0.01674997        0.02201192        0.01656001        0.05526452
      58         -0.209590        2.000000        0.00029512        0.26524881        0.07978068        0.33510367        0.00426170        0.01595099        0.01238533        0.01397628        0.05658725
      59         -0.206905        2.000000        0.00037007        0.18409207        0.16900712        0.31109110        0.01023218        0.01694418        0.02395566        0.00744245        0.04809208
      60         -0.175913        2.000000        0.00059193        0.19400789        0.10756457        0.27280877        0.00799786        0.01114215        0.02483652        0.01655087        0.03849466
      61         -0.159534        2.000000        0.00047247        0.20621246        0.13397161        0.27617162        0.00741107        0.01187288        0.02520749        0.01594186        0.03732892
      62         -0.088483        0.000000        0.00059736        0.16525768        0.13204718        0.20283141        0.00850206        0.01830815        0.02410830        0.01412906        0.06157587
      63         -0.046462        0.000000        0.00155793        0.23498669        0.15500999        0.29674707        0.01124022        0.01655055        0.03365883        0.01851334        0.05512851
      64         -0.028107        0.000000        0.00254945        0.25405551        0.11541330        0.33383918        0.01492639        0.02662407        0.03563619        0.03278417        0.04683492
      65         -0.020917        0.000000        0.00226874        0.21029229        0.15680994        0.29974864        0.01982840        0.01376095        0.03961382        0.02595213        0.05014892
      66         -0.004009        0.000000        0.09616114        0.09047005        0.06101584        0.09753497        0.01325124        0.02357552        0.01841586        0.01213825        0.01483544
      67         -0.002605        0.000000        0.00374532        0.21780706        0.13480152        0.29924867        0.01105969        0.02519681        0.02724609        0.01819928        0.04902335
      68          0.003516        0.000000        0.00950344        0.16435216        0.15466439        0.28169867        0.01516002        0.02336462        0.02985561        0.02224870        0.05124360
      69          0.040058        0.000000        0.02464008        0.16130498        0.10793864        0.15796748        0.01197368        0.01452880        0.03294629        0.02077403        0.03124640
      70          0.048428        0.000000        0.04702235        0.04377752        0.05260761        0.04783618        0.00413637        0.00829822        0.01238044        0.01158934        0.00375031
      71          0.050255        0.000000        0.05087139        0.05384594        0.05438250        0.05104833        0.00686402        0.01118561        0.00774291        0.00894544        0.00539597
      72          0.052510        0.000000        0.03556590        0.09350322        0.13828939        0.08671127        0.02966276        0.04017117        0.01626548        0.04959727        0.01359922
      73          0.064285        0.000000        0.00924474        0.21430330        0.18250883        0.22502032        0.01244972        0.01173760        0.03493221        0.01451062        0.02403396
      74          0.086316        0.000000        0.04861418        0.08569841        0.11138475        0.05941212        0.03700145        0.04946726        0.02402793        0.03679371        0.02407563
      75          0.093089        0.000000        0.14162738        0.06116282        0.05985656        0.06044964        0.04499406        0.02983031        0.04927235        0.02086408        0.02111256
      76          0.097412        0.000000        0.08245965        0.07776576        0.04119777        0.04706499        0.02840771        0.02345499        0.03563433        0.00788972        0.00874351
      77          0.108207        0.000000        0.17466811        0.05937266        0.08453860        0.05078600        0.01592878        0.02482282        0.02086625        0.02392518        0.00705176
      78          0.110249        0.000000        0.19016606        0.05969525        0.06828843        0.07189123        0.03446696        0.03632529        0.05075157        0.02695176        0.01163139
      79          0.111830        0.000000        0.15942457        0.08232668        0.08404313        0.06768245        0.02743708        0.03672875        0.02885082        0.01375639        0.01387851
      80          0.121065        0.000000        0.21546280        0.12414936        0.06241959        0.15478258        0.03896217        0.02486721        0.00646311        0.03164847        0.01164591
      81          0.124509        0.000000        0.08322930        0.20770509        0.09054881        0.29512449        0.01514620        0.01820260        0.01009920        0.02414509        0.01486795
      82          0.135534        0.000000        0.14896253        0.13569903        0.08844240        0.21354708        0.02820918        0.02493182        0.01345085        0.02792465        0.01835084
      83          0.140623        0.000000        0.17685498        0.08743781        0.11162009        0.16863314        0.03914586        0.01350909        0.00611246        0.03651027        0.01063753
      84          0.155289        0.000000        0.12350514        0.08741120        0.05292487        0.02525920        0.00756918        0.03461812        0.00565918        0.01307152        0.01812879
      85          0.161156        0.000000        0.16739256        0.03479284        0.13163962        0.03517782        0.00359221        0.01693824        0.02811664        0.03490859        0.00442850
      86          0.169257        0.000000        0.25919687        0.05470175        0.06618585        0.04004995        0.02726430        0.02889703        0.02410671        0.01031739        0.00361267
      87          0.170457        0.000000        0.28746945        0.06597204        0.06350960        0.04867909        0.03529817        0.02451866        0.01945566        0.01538032        0.00695061
      88          0.178616        0.000000        0.15120986        0.05714583        0.12369519        0.06750643        0.03315260        0.02558803        0.02296321        0.05037000        0.01086641
      89          0.187591        0.000000        0.25516290        0.06044542        0.10602620        0.03425610        0.07197839        0.02762565        0.01513836        0.04263291        0.00641806
      90          0.189097        0.000000        0.34092010        0.05160372        0.03717435        0.04764344        0.09224633        0.04397629        0.03844869        0.04688683        0.00631171
      91          0.191855        0.000000        0.35591491        0.05318704        0.06262077        0.01972959        0.07298881        0.04473483        0.01417309        0.04214364        0.01616038
      92          0.196216        0.000000        0.27293513        0.04135653        0.08976692        0.04793439        0.05444399        0.03445674        0.02942127        0.04626196        0.00831828
      93          0.207790        0.000000        0.18662156        0.07362841        0.06872879        0.07734679        0.07581422        0.04646262        0.07574394        0.02783129        0.01109978
      94          0.209310        0.000000        0.12175197        0.06820081        0.07696493        0.06383197        0.04349083        0.04032242        0.02291449        0.04586647        0.01467811
      95          0.217014        0.000000        0.16253943        0.09187147        0.07732856        0.07943438        0.04866743        0.03877460        0.01951236        0.03529233        0.00955423
      96          0.227070        0.000000        0.17285825        0.06440069        0.11912575        0.06589708        0.06093594        0.03733437        0.04024651        0.03325575        0.01086441
      97          0.229228        0.000000        0.18000600        0.11088447        0.05434547        0.06064521        0.05822144        0.07106804        0.03130125        0.03053894        0.01789055
      98          0.232738        0.000000        0.19672535        0.04714054        0.06883732        0.08880623        0.05430228        0.04747033        0.03571744        0.04885431        0.01423101
      99          0.245427        0.000000        0.29617387        0.07746572        0.07307231        0.07375225        0.01649377        0.04456200        0.01616262        0.06260219        0.03078544
     100          0.256726        0.000000        0.12218138        0.10700923        0.13665224        0.11045524        0.03139481        0.02889685        0.02006017        0.03176014        0.02188642
     101          0.259458        0.000000        0.08502719        0.14896258        0.10411894        0.18096823        0.02379573        0.02202151        0.01975300        0.02900386        0.00613005
     102          0.267277        0.000000        0.17210259        0.09866753        0.08038042        0.09525942        0.03376513        0.03169065        0.02521558        0.02553514        0.00776159
     103          0.273409        0.000000        0.05228322        0.16171322        0.13595770        0.20487614        0.01258960        0.01569921        0.00581052        0.01360122        0.00550035
     104          0.277564        0.000000        0.17662263        0.06765306        0.05988652        0.10841482        0.09606950        0.04453917        0.02104400        0.05166809        0.01216439
     105          0.282921        0.000000        0.10928886        0.07201391        0.13454530        0.04805628        0.01628318        0.04131987        0.02632799        0.01596766        0.01678080
     106          0.286036        0.000000        0.18912988        0.07509346        0.06819225        0.08690369        0.02444248        0.04187294        0.03271480        0.02669700        0.00905242
     107          0.296527        0.000000        0.04697020        0.14866490        0.06614498        0.13998749        0.02248625        0.01206146        0.01384985        0.01047645        0.00784700
     108          0.308482        0.000000        0.16418335        0.09829567        0.07332818        0.07232695        0.07767326        0.04112484        0.03062133        0.03829514        0.01206469
     109          0.311036        0.000000        0.11935768        0.09372735        0.11685589        0.05473466        0.04061983        0.08692910        0.02947855        0.04667329        0.01640491
     110          0.314389        0.000000        0.06807181        0.08125821        0.11670086        0.05912999        0.02070249        0.06822036        0.01487363        0.02533461        0.00972241
     111          0.325102        0.000000        0.09972535        0.11024994        0.07842741        0.06688143        0.04450605        0.02479523        0.05008824        0.03485207        0.01089194
