# Projected DOS for atomic kind O at iteration step i = 0, E(Fermi) =    -0.157970 a.u.
#     MO Eigenvalue [a.u.]      Occupation                 s                py                pz                px               d-2               d-1                d0               d+1               d+2
       1         -1.045333        2.000000        0.34936659        0.01890389        0.00635614        0.00474020        0.00056820        0.00058518        0.00006210        0.00092614        0.00000965
       2         -1.030933        2.000000        0.35878975        0.00073518        0.01995600        0.00947028        0.00113010        0.00042268        0.00012413        0.00025906        0.00004582
       3         -0.841661        2.000000        0.01094011        0.00182841        0.00007854        0.00114788        0.00008682        0.00010140        0.00000214        0.00000057        0.00002754
       4         -0.837561        2.000000        0.06082046        0.00829346        0.01388372        0.00134008        0.00001539        0.00257515        0.00010577        0.00017906        0.00086373
       5         -0.834568        2.000000        0.01289124        0.00048797        0.00123401        0.00140501        0.00005064        0.00000033        0.00005546        0.00013952        0.00000561
       6         -0.827346        2.000000        0.06299388        0.00285211        0.01665718        0.00150517        0.00005946        0.00012011        0.00196529        0.00098781        0.00004458
       7         -0.808598        2.000000        0.00123407        0.00602782        0.00591843        0.01485162        0.00019051        0.00041517        0.00028145        0.00086031        0.00021151
       8         -0.765805        2.000000        0.00166433        0.01634177        0.02086071        0.02598437        0.00179808        0.00142900        0.00157927        0.00007630        0.00019400
       9         -0.759323        2.000000        0.00260305        0.01071123        0.01069382        0.01078269        0.00157323        0.00079556        0.00137977        0.00021130        0.00024994
      10         -0.708906        2.000000        0.00124483        0.01934225        0.01837109        0.03275044        0.00080628        0.00141139        0.00099200        0.00177944        0.00041226
      11         -0.691474        2.000000        0.00225291        0.03145577        0.02174775        0.03627887        0.00093423        0.00090841        0.00089806        0.00019681        0.00006408
      12         -0.677706        2.000000        0.01138312        0.00341718        0.00399113        0.00447468        0.00081470        0.00023856        0.00032336        0.00085558        0.00034280
      13         -0.672569        2.000000        0.01011944        0.00022871        0.00057088        0.00017805        0.00034919        0.00024302        0.00008320        0.00097252        0.00031197
      14         -0.658359        2.000000        0.00117264        0.00925408        0.00890704        0.01147687        0.00184365        0.00153356        0.00131600        0.00040880        0.00024238
      15         -0.633046        2.000000        0.00513678        0.00572374        0.00501236        0.00531206        0.00133442        0.00060104        0.00092286        0.00046057        0.00035370
      16         -0.595763        2.000000        0.00426630        0.00770488        0.02190235        0.02298831        0.00058406        0.00065832        0.00066613        0.00112017        0.00027654
      17         -0.579743        2.000000        0.00029691        0.05782342        0.06075209        0.06467205        0.00043073        0.00147584        0.00069624        0.00021424        0.00025450
      18         -0.559460        2.000000        0.00386044        0.05479149        0.05089083        0.03843240        0.00080387        0.00033375        0.00066354        0.00074946        0.00045842
      19         -0.550180        2.000000        0.00543713        0.01212035        0.02211994        0.00013972        0.00064937        0.00044827        0.00037448        0.00074763        0.00022713
      20         -0.544240        2.000000        0.02402439        0.01287177        0.02244091        0.00500681        0.00065243        0.00018089        0.00012896        0.00034367        0.00003164
      21         -0.532820        2.000000        0.03131418        0.00865227        0.01705843        0.00178157        0.00030816        0.00016439        0.00002719        0.00038552        0.00007405
      22         -0.503864        2.000000        0.00692373        0.02837515        0.06270654        0.01139471        0.00010796        0.00070906        0.00063748        0.00021607        0.00019152
      23         -0.496313        2.000000        0.00442675        0.04303717        0.03576818        0.00565913        0.00049053        0.00048453        0.00055406        0.00158863        0.00077212
      24         -0.480824        2.000000        0.00663353        0.00955443        0.04540800        0.03374543        0.00071544        0.00028126        0.00081756        0.00093040        0.00018145
      25         -0.470591        2.000000        0.01051983        0.04502014        0.02101691        0.05220762        0.00079391        0.00055043        0.00033194        0.00029535        0.00009890
      26         -0.464608        2.000000        0.00594845        0.00609113        0.01060620        0.00281389        0.00054980        0.00014858        0.00009004        0.00011401        0.00005198
      27         -0.462022        2.000000        0.00091419        0.01668543        0.02656903        0.00857116        0.00067481        0.00039597        0.00053494        0.00002317        0.00006522
      28         -0.452824        2.000000        0.02666670        0.05210928        0.05028900        0.00876150        0.00053234        0.00040943        0.00001684        0.00004196        0.00001672
      29         -0.447936        2.000000        0.01999614        0.00787920        0.04904839        0.00812291        0.00037673        0.00021999        0.00006036        0.00017135        0.00010039
      30         -0.437377        2.000000        0.00533444        0.00129939        0.00934542        0.00397915        0.00043165        0.00006899        0.00034138        0.00087465        0.00035008
      31         -0.428765        2.000000        0.00011810        0.14910546        0.09180728        0.12589454        0.00035347        0.00003308        0.00123001        0.00101435        0.00241832
      32         -0.418408        2.000000        0.00016018        0.12328199        0.04689116        0.19193741        0.00018264        0.00159702        0.00161681        0.00080454        0.00098744
      33         -0.405175        2.000000        0.00347898        0.01127288        0.01269415        0.04014896        0.00034988        0.00011145        0.00022501        0.00052109        0.00017651
      34         -0.398507        2.000000        0.00342069        0.02680604        0.01745072        0.03138085        0.00023167        0.00025443        0.00012789        0.00027399        0.00005381
      35         -0.393280        2.000000        0.00059683        0.00674178        0.00073587        0.01564994        0.00005885        0.00003082        0.00003483        0.00000877        0.00000731
      36         -0.388876        2.000000        0.00067436        0.00196899        0.00207992        0.00573733        0.00004321        0.00005673        0.00001581        0.00017247        0.00007766
      37         -0.374512        2.000000        0.00770734        0.04909210        0.01740357        0.03243569        0.00029657        0.00006576        0.00021269        0.00082544        0.00028578
      38         -0.368448        2.000000        0.02208833        0.03747809        0.04748270        0.06334532        0.00061777        0.00098371        0.00012381        0.00134945        0.00035809
      39         -0.359950        2.000000        0.00853184        0.03436517        0.04923845        0.01270434        0.00023018        0.00072824        0.00042053        0.00045998        0.00021875
      40         -0.359295        2.000000        0.00233327        0.02299840        0.04830920        0.00048210        0.00041874        0.00059030        0.00015691        0.00002038        0.00005807
      41         -0.349385        2.000000        0.00910771        0.03699896        0.01071458        0.00373023        0.00005808        0.00029897        0.00193344        0.00145975        0.00058681
      42         -0.345243        2.000000        0.00679426        0.00064956        0.02690744        0.00795504        0.00037421        0.00067318        0.00003931        0.00070609        0.00183739
      43         -0.340767        2.000000        0.00922426        0.00330071        0.00963914        0.00609478        0.00093436        0.00052800        0.00044704        0.00085103        0.00065155
      44         -0.334557        2.000000        0.00048659        0.00433580        0.00636559        0.03355356        0.00029298        0.00016814        0.00047697        0.00018706        0.00112687
      45         -0.331962        2.000000        0.00140614        0.00673793        0.02235434        0.02111513        0.00043604        0.00064820        0.00018355        0.00066403        0.00030470
      46         -0.325404        2.000000        0.00108104        0.01554678        0.00914711        0.07159552        0.00011194        0.00000700        0.00006418        0.00001132        0.00008354
      47         -0.313622        2.000000        0.00246451        0.01447377        0.03415800        0.01824800        0.00079370        0.00055437        0.00014437        0.00085091        0.00017215
      48         -0.308331        2.000000        0.00808259        0.04165227        0.07955126        0.03323391        0.00055817        0.00078630        0.00029847        0.00092572        0.00018117
      49         -0.298132        2.000000        0.00994728        0.02211110        0.05183985        0.06278040        0.00014258        0.00006711        0.00013382        0.00105972        0.00018163
      50         -0.293858        2.000000        0.00166337        0.15227560        0.03429676        0.04343234        0.00035276        0.00036753        0.00232973        0.00020764        0.00034065
      51         -0.290341        2.000000        0.00040561        0.07414250        0.01377824        0.08435517        0.00024120        0.00008932        0.00036478        0.00051118        0.00024835
      52         -0.273975        2.000000        0.00010409        0.00161405        0.00034685        0.00036203        0.00081258        0.00107603        0.00240990        0.00074541        0.00405022
      53         -0.253959        2.000000        0.00012042        0.00116684        0.00032738        0.00100751        0.00101693        0.00076953        0.00274253        0.00111417        0.00314476
      54         -0.251111        2.000000        0.00155286        0.01723842        0.02802620        0.00023276        0.00048472        0.00102129        0.00052686        0.00006023        0.00004745
      55         -0.236374        2.000000        0.00206250        0.00353516        0.04501371        0.00425675        0.00013030        0.00084520        0.00104045        0.00000261        0.00000579
      56         -0.229963        2.000000        0.00035589        0.00025653        0.00110723        0.00094581        0.00007679        0.00027533        0.00007754        0.00016241        0.00109110
      57         -0.220991        2.000000        0.00001185        0.01894892        0.01113008        0.02843489        0.00005849        0.00029579        0.00003807        0.00015150        0.00287274
      58         -0.215314        2.000000        0.00003488        0.03471905        0.02234880        0.03340104        0.00015353        0.00060729        0.00041831        0.00017667        0.00224892
      59         -0.209449        2.000000        0.00005897        0.03054801        0.01767879        0.03197886        0.00002583        0.00017781        0.00006578        0.00008063        0.00082993
      60         -0.176561        2.000000        0.00003800        0.00293612        0.00141592        0.00371410        0.00056260        0.00038202        0.00131375        0.00052405        0.00097873
      61         -0.157970        2.000000        0.00006405        0.00119964        0.00036772        0.00056669        0.00033930        0.00037844        0.00085538        0.00031870        0.00123019
      62         -0.094108        0.000000        0.00017071        0.01677075        0.00817341        0.01667675        0.00036339        0.00048524        0.00124971        0.00073439        0.00044514
      63         -0.043262        0.000000        0.00005502        0.00493022        0.00452710        0.00623706        0.00089218        0.00072216        0.00314265        0.00124483        0.00157113
      64         -0.028610        0.000000        0.00009190        0.00954402        0.00478188        0.01203227        0.00009015        0.00134362        0.00026284        0.00053152        0.00647574
      65         -0.019216        0.000000        0.00001751        0.03553389        0.02083153        0.04533436        0.00012349        0.00185988        0.00121785        0.00099321        0.00644816
      66         -0.006757        0.000000        0.00105214        0.01197297        0.00744679        0.00911200        0.00036666        0.00005472        0.00031334        0.00038298        0.00342895
      67         -0.002345        0.000000        0.01692434        0.00915350        0.00963589        0.01039916        0.00482570        0.00215864        0.00172897        0.00057070        0.00012959
      68         -0.001674        0.000000        0.00031416        0.00035992        0.00012148        0.00029616        0.00013819        0.00036709        0.00252491        0.00059035        0.00107851
      69          0.035573        0.000000        0.02833899        0.00860022        0.01966781        0.01854725        0.00410724        0.00009029        0.00468581        0.00199759        0.00051636
      70          0.043301        0.000000        0.00039636        0.00081340        0.00016010        0.00095657        0.00011436        0.00021157        0.00018825        0.00056938        0.00026714
      71          0.053063        0.000000        0.01838303        0.00274439        0.00037035        0.00189805        0.00008655        0.00028349        0.00004639        0.00050893        0.00009621
      72          0.053686        0.000000        0.04265460        0.01087256        0.00132599        0.00999514        0.00008766        0.00271847        0.00185084        0.00240822        0.00076411
      73          0.067102        0.000000        0.00401316        0.00497287        0.00694062        0.01110992        0.00164260        0.00052096        0.00505990        0.00220949        0.00112043
      74          0.090976        0.000000        0.00626076        0.00411094        0.00411432        0.01001584        0.00153158        0.00169807        0.00085276        0.00026537        0.00043203
      75          0.093090        0.000000        0.08957244        0.00943163        0.00555887        0.01451997        0.00033756        0.00199843        0.00013416        0.00288919        0.00143695
      76          0.095097        0.000000        0.01132732        0.01578579        0.00056444        0.01407186        0.00248633        0.00067417        0.00183027        0.00005400        0.00001993
      77          0.100286        0.000000        0.03269272        0.00477955        0.00406790        0.01139028        0.00065258        0.00084335        0.00037877        0.00029429        0.00071319
      78          0.113103        0.000000        0.06657922        0.00412652        0.00901967        0.00054298        0.00082506        0.00272285        0.00128405        0.00039646        0.00062729
      79          0.114133        0.000000        0.00258456        0.00099244        0.00096420        0.00021131        0.00001094        0.00014240        0.00004234        0.00003600        0.00072251
      80          0.121230        0.000000        0.00292416        0.00270413        0.00083633        0.00403850        0.00055444        0.00188076        0.00160005        0.00016592        0.00304015
      81          0.123385        0.000000        0.09302592        0.01045365        0.00165283        0.00255294        0.00204426        0.00007746        0.00096882        0.00037236        0.00157510
      82          0.129012        0.000000        0.00901033        0.00366064        0.00056129        0.00475155        0.00051849        0.00155032        0.00014997        0.00119497        0.00603645
      83          0.135482        0.000000        0.00410698        0.00533121        0.00391532        0.00446843        0.00042519        0.00092259        0.00137116        0.00174276        0.00070146
      84          0.151232        0.000000        0.00153422        0.00218356        0.00473130        0.00034611        0.00123890        0.00134090        0.00051072        0.00051007        0.00042406
      85          0.157803        0.000000        0.00068508        0.00031899        0.00335445        0.00201455        0.00076129        0.00026775        0.00025584        0.00021483        0.00008845
      86          0.170474        0.000000        0.00042754        0.02886289        0.02156955        0.00564449        0.00378853        0.00360854        0.00440950        0.00050130        0.00019442
      87          0.174246        0.000000        0.00134490        0.00364581        0.00595067        0.00220131        0.00084972        0.00012469        0.00021721        0.00027608        0.00000347
      88          0.181901        0.000000        0.00060855        0.01261495        0.02082663        0.01975412        0.00726566        0.00577404        0.00561442        0.00094935        0.00134091
      89          0.187472        0.000000        0.00301797        0.00152690        0.00511941        0.00221083        0.00075374        0.00636068        0.00211863        0.00059088        0.00089584
      90          0.191328        0.000000        0.00594513        0.01129019        0.00588642        0.00505614        0.00056185        0.00485079        0.00382330        0.00101523        0.00081537
      91          0.193327        0.000000        0.00058259        0.02030487        0.01066432        0.00467608        0.00084798        0.00202098        0.00217876        0.00342048        0.00030179
      92          0.196103        0.000000        0.00177539        0.00352633        0.03331111        0.01860216        0.00210484        0.00371917        0.00339050        0.00009607        0.00044654
      93          0.198019        0.000000        0.00051611        0.01135831        0.00836496        0.00747420        0.00195972        0.00437779        0.00353613        0.00052304        0.00034946
      94          0.215368        0.000000        0.00340623        0.00758713        0.00563972        0.00827396        0.00734940        0.00019951        0.00142703        0.00079105        0.00000141
      95          0.218375        0.000000        0.00249003        0.01452036        0.02298299        0.01343688        0.00743108        0.00381437        0.00231142        0.00287214        0.00225937
      96          0.223022        0.000000        0.00731581        0.00270476        0.01451005        0.02949540        0.00531824        0.00072990        0.00081332        0.00394463        0.00100334
      97          0.227274        0.000000        0.00091222        0.02840335        0.03057989        0.01484652        0.00851826        0.00317342        0.00747391        0.00446225        0.00267499
      98          0.239812        0.000000        0.00115137        0.00324928        0.00420827        0.00102217        0.00405401        0.00116661        0.00255117        0.00010968        0.00067923
      99          0.250016        0.000000        0.00274555        0.00445090        0.03376327        0.00924132        0.00229734        0.00339415        0.00087148        0.00056403        0.00059472
     100          0.253437        0.000000        0.00244265        0.01937552        0.03146294        0.01097494        0.00556396        0.00187023        0.00065371        0.00460154        0.00109026
     101          0.255106        0.000000        0.00085124        0.01113357        0.00639188        0.00385428        0.00094030        0.00110294        0.00130031        0.00014571        0.00074999
     102          0.267353        0.000000        0.00440790        0.00830714        0.00880371        0.00708581        0.00058928        0.00117092        0.00203547        0.00203458        0.00010226
     103          0.272558        0.000000        0.00037461        0.00326567        0.02167339        0.00120309        0.00038873        0.00048577        0.00194659        0.00303115        0.00011687
     104          0.275407        0.000000        0.00029513        0.01254305        0.00852134        0.00921253        0.00328362        0.00403826        0.00067820        0.00141367        0.00213034
     105          0.283217        0.000000        0.00219658        0.00449054        0.00355656        0.00711631        0.00071944        0.00527037        0.00157607        0.00218809        0.00020221
     106          0.287188        0.000000        0.00074808        0.00303887        0.01068092        0.00014807        0.00046677        0.01319117        0.00418783        0.00072805        0.00024911
     107          0.298141        0.000000        0.00036560        0.00069752        0.00375237        0.00241346        0.00091064        0.00133712        0.00244766        0.00126695        0.00089439
     108          0.304879        0.000000        0.01408054        0.00566073        0.00522800        0.00755378        0.00195887        0.00276845        0.00038638        0.00369934        0.00087196
     109          0.311159        0.000000        0.00377447        0.00374391        0.00777027        0.00506520        0.00398504        0.00592904        0.00650113        0.00029987        0.00048634
     110          0.317340        0.000000        0.01045180        0.00247088        0.01206878        0.00931831        0.00330454        0.01163241        0.00615633        0.00084841        0.00106230
     111          0.319722        0.000000        0.00038341        0.00371447        0.00189320        0.00016106        0.00053971        0.00269633        0.00053613        0.00000288        0.00022102
