# Projected DOS for atomic kind S at iteration step i = 0, E(Fermi) =    -0.159534 a.u.
#     MO Eigenvalue [a.u.]      Occupation                 s                py                pz                px               d-2               d-1                d0               d+1               d+2
       1         -1.022597        2.000000        0.00236450        0.00335702        0.00004575        0.00337987        0.00021941        0.00003026        0.00003762        0.00000069        0.00000430
       2         -1.018796        2.000000        0.00108412        0.00080405        0.00052505        0.00225533        0.00002062        0.00000620        0.00000009        0.00007736        0.00002192
       3         -0.859365        2.000000        0.00002173        0.00000614        0.00000840        0.00000024        0.00000166        0.00000045        0.00000013        0.00000006        0.00000004
       4         -0.854457        2.000000        0.00000712        0.00000146        0.00000283        0.00000022        0.00000022        0.00000001        0.00000000        0.00000032        0.00000004
       5         -0.846216        2.000000        0.00201050        0.00000916        0.00087459        0.00038736        0.00001187        0.00000205        0.00000432        0.00004609        0.00000242
       6         -0.833144        2.000000        0.00349814        0.00091672        0.00117928        0.00000052        0.00002076        0.00009829        0.00000101        0.00000089        0.00002628
       7         -0.812042        2.000000        0.15748791        0.01091726        0.02844645        0.00197587        0.00124485        0.00190820        0.00012717        0.00114528        0.00004212
       8         -0.762677        2.000000        0.00163295        0.00182991        0.00096808        0.00465607        0.00005398        0.00003627        0.00011958        0.00045423        0.00013328
       9         -0.754421        2.000000        0.00438315        0.00186871        0.00035846        0.00066467        0.00000003        0.00031217        0.00001883        0.00002681        0.00010087
      10         -0.707073        2.000000        0.00052574        0.02186189        0.00239097        0.03422806        0.00063147        0.00146744        0.00064045        0.00370313        0.00187858
      11         -0.679949        2.000000        0.04799963        0.00316498        0.00253552        0.00018826        0.00097578        0.00071005        0.00048489        0.00011912        0.00025324
      12         -0.672457        2.000000        0.00028018        0.00004194        0.00000999        0.00002457        0.00000107        0.00002880        0.00000139        0.00003479        0.00002341
      13         -0.668614        2.000000        0.02249446        0.00053445        0.00089609        0.00004457        0.00033985        0.00014115        0.00020576        0.00000176        0.00001589
      14         -0.659583        2.000000        0.13236496        0.00133742        0.00373413        0.00030061        0.00000420        0.00004101        0.00000513        0.00000040        0.00001314
      15         -0.636312        2.000000        0.00058733        0.00570472        0.00026879        0.00742827        0.00019398        0.00075093        0.00022591        0.00177181        0.00097699
      16         -0.594056        2.000000        0.03552154        0.00054513        0.00147901        0.00015705        0.00095472        0.00027380        0.00053180        0.00000511        0.00006368
      17         -0.574755        2.000000        0.00003506        0.00131091        0.00008914        0.00202878        0.00000587        0.00001540        0.00000895        0.00006315        0.00004237
      18         -0.556826        2.000000        0.00004191        0.00007538        0.00042697        0.00042636        0.00002867        0.00000717        0.00001228        0.00000002        0.00000008
      19         -0.550231        2.000000        0.00049339        0.00196137        0.00008366        0.00194709        0.00008050        0.00015053        0.00006604        0.00043268        0.00026207
      20         -0.540723        2.000000        0.00601284        0.00009934        0.00104465        0.00054868        0.00015506        0.00003907        0.00005776        0.00002908        0.00002201
      21         -0.535959        2.000000        0.00046032        0.00129180        0.00005064        0.00078898        0.00000191        0.00002423        0.00000155        0.00001861        0.00000532
      22         -0.506084        2.000000        0.01919084        0.00267947        0.00647555        0.00029512        0.00003716        0.00012066        0.00000778        0.00001237        0.00001530
      23         -0.494468        2.000000        0.00014583        0.02129867        0.00160428        0.02909778        0.00004135        0.00097635        0.00010868        0.00160635        0.00088296
      24         -0.484371        2.000000        0.00185224        0.00048673        0.00539811        0.00154947        0.00045555        0.00028345        0.00043872        0.00000966        0.00004669
      25         -0.477392        2.000000        0.00055479        0.00008348        0.00027287        0.00013851        0.00000007        0.00001055        0.00002645        0.00007022        0.00000286
      26         -0.468689        2.000000        0.05931388        0.02275914        0.02745582        0.00010873        0.00000641        0.00276254        0.00055663        0.00009458        0.00034491
      27         -0.466548        2.000000        0.00309347        0.01814645        0.00441282        0.03155538        0.00009510        0.00119374        0.00037633        0.00366468        0.00166844
      28         -0.448651        2.000000        0.00282675        0.00041832        0.00684439        0.00218742        0.00026347        0.00029878        0.00044206        0.00008298        0.00001797
      29         -0.443162        2.000000        0.00021484        0.00009212        0.00041321        0.00078383        0.00040718        0.00000768        0.00030905        0.00021288        0.00004004
      30         -0.441405        2.000000        0.00042563        0.00066784        0.00035820        0.00082690        0.00056673        0.00006607        0.00050232        0.00005335        0.00000003
      31         -0.416674        2.000000        0.00053424        0.00533206        0.00603707        0.00425065        0.00018662        0.00001020        0.00035330        0.00002506        0.00025579
      32         -0.413788        2.000000        0.00018221        0.00001014        0.00003045        0.00001459        0.00005328        0.00010381        0.00000918        0.00004280        0.00053188
      33         -0.406571        2.000000        0.00079337        0.00965536        0.00061596        0.01522338        0.00004989        0.00151512        0.00018977        0.00357318        0.00151514
      34         -0.400052        2.000000        0.00313238        0.00366007        0.00019736        0.00072076        0.00002099        0.00027692        0.00000353        0.00004707        0.00002489
      35         -0.392910        2.000000        0.00021668        0.00057406        0.00031750        0.00359649        0.00000725        0.00002794        0.00002292        0.00008508        0.00008520
      36         -0.386942        2.000000        0.00044482        0.00151522        0.00113020        0.00055102        0.00010023        0.00002408        0.00003351        0.00008648        0.00004350
      37         -0.378452        2.000000        0.00010097        0.01980191        0.00310409        0.03794370        0.00008176        0.00061564        0.00011078        0.00134868        0.00091535
      38         -0.364337        2.000000        0.00063970        0.00275244        0.00197832        0.00022882        0.00005208        0.00012633        0.00009661        0.00031027        0.00043517
      39         -0.359871        2.000000        0.00222097        0.00028818        0.02335921        0.01784332        0.00036468        0.00006846        0.00087988        0.00000478        0.00010968
      40         -0.351911        2.000000        0.01163559        0.00076150        0.05207887        0.01516813        0.00386735        0.00000961        0.00001981        0.00074048        0.00000920
      41         -0.349012        2.000000        0.00293556        0.01079356        0.00336830        0.05668578        0.00018310        0.00096086        0.00034692        0.00227021        0.00077301
      42         -0.347421        2.000000        0.01103634        0.10240834        0.00350159        0.00211792        0.00022381        0.00053511        0.00152762        0.00001703        0.00050209
      43         -0.341589        2.000000        0.00198224        0.00427634        0.00154231        0.00618849        0.00053689        0.00034525        0.00002275        0.00029501        0.00000019
      44         -0.338281        2.000000        0.00127396        0.00547888        0.00007684        0.04775009        0.00008707        0.00009091        0.00107515        0.00031907        0.00005438
      45         -0.334778        2.000000        0.00130267        0.01407189        0.00585850        0.00006005        0.00005409        0.00001092        0.00072197        0.00021368        0.00008409
      46         -0.328326        2.000000        0.00051360        0.04469632        0.01028069        0.00404463        0.00016623        0.00025646        0.00114810        0.00018934        0.00030533
      47         -0.309257        2.000000        0.03318048        0.04613844        0.21506987        0.01797790        0.00078311        0.00030696        0.00000395        0.00023622        0.00000108
      48         -0.301952        2.000000        0.00367281        0.00617168        0.01522755        0.00096610        0.00046074        0.00051300        0.00005706        0.00036389        0.00007633
      49         -0.296332        2.000000        0.00045579        0.00036478        0.00355959        0.00029562        0.00004496        0.00001329        0.00000086        0.00000857        0.00036883
      50         -0.294866        2.000000        0.02489748        0.01798067        0.09200384        0.01413712        0.00143076        0.00002184        0.00002553        0.00174873        0.00052978
      51         -0.291685        2.000000        0.00045356        0.00095843        0.00727434        0.00166146        0.00002309        0.00001172        0.00000102        0.00005996        0.00001959
      52         -0.276892        2.000000        0.00007596        0.00021389        0.00074553        0.00008894        0.00003823        0.00095350        0.00009300        0.00051062        0.00403201
      53         -0.257039        2.000000        0.00004267        0.00834909        0.01186367        0.00668836        0.00005076        0.00001512        0.00012531        0.00001100        0.00000405
      54         -0.241440        2.000000        0.00016514        0.00021504        0.00006355        0.00100731        0.00003207        0.00000306        0.00002459        0.00000798        0.00001831
      55         -0.240570        2.000000        0.00004175        0.00027910        0.00051976        0.00200001        0.00000223        0.00000009        0.00000071        0.00002495        0.00021437
      56         -0.223788        2.000000        0.00007063        0.14615670        0.08975097        0.17386200        0.00022344        0.00016810        0.00021089        0.00001806        0.00011491
      57         -0.220276        2.000000        0.00000649        0.00631052        0.00554696        0.00642927        0.00001527        0.00178063        0.00006534        0.00106525        0.00681791
      58         -0.209590        2.000000        0.00001722        0.00828492        0.00581154        0.00861097        0.00001113        0.00006507        0.00001039        0.00004333        0.00011980
      59         -0.206905        2.000000        0.00000227        0.00722036        0.00407212        0.00828335        0.00000177        0.00022680        0.00000533        0.00011732        0.00073526
      60         -0.175913        2.000000        0.00003593        0.00825110        0.00850838        0.00622386        0.00003371        0.00000196        0.00007736        0.00002256        0.00003482
      61         -0.159534        2.000000        0.00000948        0.00001207        0.00004091        0.00058502        0.00000673        0.00078962        0.00004449        0.00033107        0.00261010
      62         -0.088483        0.000000        0.00003227        0.04190025        0.03481082        0.03130410        0.00163678        0.00083196        0.00802397        0.00124841        0.00040591
      63         -0.046462        0.000000        0.00064202        0.00013013        0.00083197        0.00413472        0.00000575        0.00024730        0.00000126        0.00162956        0.00000903
      64         -0.028107        0.000000        0.00000775        0.00612170        0.00272479        0.00002002        0.00009087        0.00155366        0.00286132        0.00029802        0.00050712
      65         -0.020917        0.000000        0.00007098        0.00004080        0.00007693        0.00599660        0.00027057        0.00026184        0.00032067        0.00239632        0.00001087
      66         -0.004009        0.000000        0.00040056        0.12068739        0.00351603        0.14642235        0.00657566        0.05646479        0.00761055        0.08730465        0.04150241
      67         -0.002605        0.000000        0.00000866        0.00060233        0.00399779        0.01792017        0.00137788        0.00003487        0.00363763        0.00413748        0.00191188
      68          0.003516        0.000000        0.00065861        0.01625534        0.00016521        0.00747274        0.00081241        0.00220580        0.00066861        0.00223519        0.01688741
      69          0.040058        0.000000        0.01789950        0.02338811        0.00165023        0.01970719        0.00185689        0.00708150        0.01995652        0.01234409        0.00015320
      70          0.048428        0.000000        0.00119056        0.00026105        0.00345429        0.00002235        0.00113520        0.00077163        0.00244895        0.00087872        0.00023290
      71          0.050255        0.000000        0.00027956        0.00123493        0.00084225        0.00249217        0.00076676        0.00029718        0.00276549        0.00127154        0.00009270
      72          0.052510        0.000000        0.07321079        0.00629973        0.08201512        0.00089372        0.03847590        0.00768424        0.00571309        0.00577145        0.00119921
      73          0.064285        0.000000        0.00068991        0.00243702        0.00069059        0.00017453        0.00012281        0.00241973        0.00082713        0.00725085        0.03771528
      74          0.086316        0.000000        0.00000855        0.00737681        0.00150369        0.01024644        0.00000039        0.00006626        0.00047769        0.00003650        0.00033308
      75          0.093089        0.000000        0.00112094        0.00204810        0.00668306        0.00208441        0.00125112        0.00063822        0.00013960        0.00538202        0.00008415
      76          0.097412        0.000000        0.00345937        0.00345272        0.00860985        0.00042074        0.00190740        0.00485257        0.00065225        0.00185488        0.00000323
      77          0.108207        0.000000        0.00048862        0.00387921        0.00013150        0.00477450        0.00167897        0.00084858        0.00089710        0.00171353        0.00110814
      78          0.110249        0.000000        0.00098743        0.00071568        0.00185174        0.00196388        0.00569925        0.00513514        0.00279324        0.00078051        0.00031207
      79          0.111830        0.000000        0.00097010        0.00592613        0.00776299        0.00337766        0.01207999        0.01595859        0.01008012        0.00217727        0.00001165
      80          0.121065        0.000000        0.00144577        0.00286869        0.01418795        0.00212378        0.01376491        0.00450164        0.00007267        0.00839525        0.00007841
      81          0.124509        0.000000        0.00051786        0.00019612        0.00175109        0.00118378        0.00464687        0.00004092        0.00001901        0.00143310        0.00007606
      82          0.135534        0.000000        0.00060483        0.00139506        0.00655765        0.00174990        0.01442220        0.00455174        0.00019522        0.00050346        0.00129640
      83          0.140623        0.000000        0.00169662        0.00036667        0.00031621        0.00343134        0.00077199        0.00015027        0.00026904        0.00168696        0.00279354
      84          0.155289        0.000000        0.00111973        0.00252595        0.00358061        0.00039898        0.00261056        0.00198148        0.00010537        0.00219542        0.00001991
      85          0.161156        0.000000        0.00478919        0.00097114        0.00274328        0.00050531        0.00001306        0.00026921        0.00008804        0.00090220        0.00007998
      86          0.169257        0.000000        0.00172120        0.00046622        0.00244386        0.00086408        0.00397221        0.00316935        0.00025929        0.00417324        0.00001524
      87          0.170457        0.000000        0.00763163        0.00017097        0.00090345        0.00133223        0.00035472        0.00018981        0.00004948        0.00014565        0.00002741
      88          0.178616        0.000000        0.00395410        0.00455911        0.00715197        0.00012356        0.03126474        0.00734288        0.00106042        0.00587581        0.00000253
      89          0.187591        0.000000        0.00016057        0.00066480        0.00076979        0.00148897        0.00073440        0.00205683        0.00007841        0.00574387        0.00328887
      90          0.189097        0.000000        0.02304244        0.00521877        0.02953176        0.00696015        0.00738253        0.01445865        0.01568083        0.00564111        0.00004598
      91          0.191855        0.000000        0.00102450        0.00002229        0.00048560        0.00027389        0.00018821        0.00084662        0.00112927        0.00145951        0.00002001
      92          0.196216        0.000000        0.01305724        0.00002835        0.00032328        0.00217117        0.00272155        0.00139105        0.00181535        0.00000737        0.00030864
      93          0.207790        0.000000        0.00095849        0.00650934        0.01581656        0.00147267        0.00842977        0.00191877        0.00659612        0.00124030        0.00000466
      94          0.209310        0.000000        0.05234117        0.00698586        0.02214696        0.00272900        0.02574343        0.00911445        0.01816826        0.00146892        0.00131785
      95          0.217014        0.000000        0.00759844        0.00571949        0.01395041        0.00006098        0.00112345        0.02598285        0.00475212        0.00107812        0.00521600
      96          0.227070        0.000000        0.01309230        0.00753147        0.00731356        0.00202495        0.00303119        0.00975974        0.00699346        0.00441449        0.00051187
      97          0.229228        0.000000        0.00622783        0.00961425        0.01163246        0.00563710        0.00124044        0.01537337        0.00152138        0.00083943        0.00339448
      98          0.232738        0.000000        0.00462588        0.00635125        0.01256508        0.00722318        0.01497156        0.00649535        0.01786469        0.01472319        0.00004214
      99          0.245427        0.000000        0.01589000        0.00154029        0.00458616        0.00173981        0.00911422        0.00001865        0.00615349        0.00126222        0.00112690
     100          0.256726        0.000000        0.00156235        0.00162201        0.06035235        0.01314322        0.00055855        0.00077693        0.00242288        0.00001327        0.00077014
     101          0.259458        0.000000        0.00088777        0.06770382        0.01111143        0.03533702        0.00017190        0.00250565        0.00671497        0.00113831        0.00000057
     102          0.267277        0.000000        0.00000239        0.00494457        0.00230448        0.00125309        0.00007688        0.00752366        0.00137239        0.00000041        0.00081324
     103          0.273409        0.000000        0.00032329        0.00093483        0.00366041        0.00213869        0.00000487        0.00646516        0.00209482        0.00001046        0.00007923
     104          0.277564        0.000000        0.00065659        0.01135687        0.00061737        0.01628394        0.00018662        0.00017188        0.00107640        0.00011062        0.00032599
     105          0.282921        0.000000        0.00257583        0.00308585        0.00700255        0.00778408        0.00010054        0.00575966        0.00000105        0.00267405        0.00117021
     106          0.286036        0.000000        0.00003206        0.00247841        0.00374969        0.00119498        0.00067374        0.00013578        0.00000003        0.00000061        0.00020823
     107          0.296527        0.000000        0.00033433        0.02562878        0.03400977        0.04896256        0.00313791        0.00222049        0.00781009        0.00210114        0.00000568
     108          0.308482        0.000000        0.00047381        0.03050201        0.00436612        0.02080200        0.00000622        0.00248413        0.00007418        0.00120789        0.00222123
     109          0.311036        0.000000        0.00405924        0.01808462        0.01694653        0.00106236        0.00078023        0.00091078        0.00122986        0.00169805        0.00050976
     110          0.314389        0.000000        0.00333889        0.05305966        0.00873860        0.00522450        0.00139430        0.03143374        0.03463109        0.02767911        0.00142782
     111          0.325102        0.000000        0.00014227        0.01837543        0.00059467        0.00093398        0.00063736        0.00870730        0.00198513        0.00307701        0.00953217
