# Projected DOS for atomic kind N at iteration step i = 0, E(Fermi) =    -0.161576 a.u.
#     MO Eigenvalue [a.u.]      Occupation                 s                py                pz                px               d-2               d-1                d0               d+1               d+2
       1         -1.017702        2.000000        0.04302408        0.01613273        0.01743815        0.00057774        0.00046262        0.00091668        0.00002326        0.00000553        0.00017147
       2         -1.016578        2.000000        0.04906525        0.00127701        0.03210390        0.00344947        0.00020362        0.00006023        0.00072033        0.00074042        0.00000439
       3         -0.855781        2.000000        0.32060933        0.00027015        0.01257927        0.00863088        0.00058083        0.00001042        0.00161403        0.00207095        0.00010501
       4         -0.853136        2.000000        0.31928341        0.02544651        0.00257356        0.00039959        0.00120702        0.00170567        0.00019890        0.00002131        0.00018719
       5         -0.847332        2.000000        0.27506263        0.00251745        0.03163929        0.00199628        0.00249997        0.00001590        0.00002045        0.00044554        0.00002668
       6         -0.836232        2.000000        0.28217476        0.01446730        0.02276402        0.00029784        0.00209837        0.00007115        0.00003653        0.00057615        0.00004791
       7         -0.814513        2.000000        0.01048936        0.00682690        0.00313952        0.00895050        0.00002485        0.00017008        0.00011202        0.00015840        0.00003979
       8         -0.763697        2.000000        0.04662136        0.01244423        0.01728892        0.02233299        0.00052363        0.00031181        0.00032308        0.00072328        0.00040441
       9         -0.755914        2.000000        0.04611488        0.02158734        0.00975620        0.01634165        0.00008077        0.00063579        0.00022740        0.00100498        0.00036135
      10         -0.707241        2.000000        0.02189987        0.01499066        0.01433838        0.01819657        0.00043396        0.00074534        0.00070775        0.00060445        0.00023675
      11         -0.680703        2.000000        0.00388675        0.00349514        0.00461356        0.00168917        0.00006800        0.00039695        0.00008094        0.00016364        0.00008153
      12         -0.673004        2.000000        0.00920363        0.01472407        0.00235702        0.01578230        0.00013445        0.00016659        0.00018182        0.00027106        0.00024569
      13         -0.669288        2.000000        0.01766440        0.01710156        0.01558752        0.02215519        0.00011133        0.00032095        0.00026443        0.00075407        0.00046929
      14         -0.660694        2.000000        0.01497930        0.02509326        0.03063969        0.03099389        0.00060896        0.00135546        0.00095443        0.00209389        0.00075984
      15         -0.637946        2.000000        0.03201018        0.02005245        0.04967754        0.01468395        0.00042684        0.00155153        0.00086003        0.00172825        0.00102869
      16         -0.594174        2.000000        0.02513640        0.01311827        0.05631217        0.00563702        0.00089734        0.00133830        0.00104899        0.00037040        0.00028214
      17         -0.575119        2.000000        0.00445247        0.01340743        0.01637234        0.01186629        0.00018861        0.00029516        0.00008165        0.00001737        0.00007177
      18         -0.557545        2.000000        0.00723887        0.04732177        0.06398273        0.07611190        0.00067575        0.00011564        0.00144975        0.00152012        0.00109799
      19         -0.548943        2.000000        0.01343175        0.07305522        0.06822790        0.05579263        0.00075065        0.00284156        0.00133481        0.00246828        0.00161798
      20         -0.539677        2.000000        0.03402403        0.02116458        0.02912209        0.00596191        0.00018255        0.00162949        0.00054423        0.00027987        0.00014133
      21         -0.536184        2.000000        0.02059159        0.05664411        0.01618613        0.04721210        0.00019006        0.00057963        0.00060765        0.00039594        0.00092846
      22         -0.503786        2.000000        0.00409572        0.02316328        0.12503596        0.02495236        0.00139560        0.00165082        0.00250943        0.00135694        0.00134767
      23         -0.494435        2.000000        0.01947735        0.06258192        0.05407938        0.07048862        0.00042888        0.00183325        0.00211151        0.00181476        0.00096694
      24         -0.485194        2.000000        0.01554954        0.16749951        0.05406681        0.09661888        0.00038851        0.00310455        0.00179185        0.00097808        0.00081537
      25         -0.475794        2.000000        0.00470330        0.08790882        0.06419540        0.09828294        0.00066214        0.00144497        0.00068603        0.00092666        0.00210746
      26         -0.468709        2.000000        0.00195450        0.03484309        0.05869102        0.03556738        0.00038551        0.00080526        0.00059235        0.00063907        0.00049854
      27         -0.467817        2.000000        0.00081979        0.07836550        0.10354070        0.08658664        0.00103145        0.00223036        0.00326232        0.00163921        0.00044720
      28         -0.448127        2.000000        0.00314963        0.06444328        0.08060553        0.10877686        0.00137918        0.00137695        0.00475549        0.00367775        0.00100906
      29         -0.444026        2.000000        0.01390656        0.06821894        0.08233542        0.00343405        0.00019759        0.00382922        0.00087491        0.00116220        0.00035012
      30         -0.441292        2.000000        0.01676582        0.04962091        0.05490549        0.00646110        0.00010230        0.00288813        0.00126014        0.00068491        0.00049613
      31         -0.415768        2.000000        0.00058923        0.03719831        0.01993282        0.05012459        0.00049146        0.00087768        0.00157275        0.00164894        0.00059079
      32         -0.412858        2.000000        0.00016991        0.04086802        0.02145698        0.04753191        0.00045612        0.00068278        0.00164425        0.00134232        0.00080996
      33         -0.407270        2.000000        0.00327465        0.05547490        0.00774746        0.04832011        0.00107209        0.00325708        0.00297364        0.00046790        0.00055441
      34         -0.399886        2.000000        0.00793662        0.03921090        0.01658791        0.07501325        0.00124840        0.00201257        0.00285453        0.00079397        0.00055081
      35         -0.393425        2.000000        0.00247083        0.00770897        0.00266985        0.01993079        0.00022991        0.00024864        0.00032577        0.00031195        0.00012759
      36         -0.383855        2.000000        0.00110312        0.00636204        0.00319940        0.00983145        0.00025529        0.00017020        0.00020626        0.00004225        0.00007649
      37         -0.378396        2.000000        0.01159389        0.02634952        0.03898088        0.02191543        0.00102364        0.00127453        0.00078640        0.00091546        0.00050728
      38         -0.365708        2.000000        0.00854258        0.02553556        0.03268852        0.01015777        0.00128767        0.00384937        0.00167837        0.00153049        0.00044526
      39         -0.360532        2.000000        0.00344687        0.01404081        0.02280663        0.02152017        0.00087454        0.00093233        0.00356394        0.00190889        0.00049870
      40         -0.354216        2.000000        0.00200603        0.01929789        0.00344979        0.02632183        0.00004361        0.00064618        0.00090914        0.00087288        0.00034485
      41         -0.350851        2.000000        0.00210181        0.01655918        0.00874293        0.01848836        0.00061410        0.00267669        0.00161653        0.00108082        0.00091843
      42         -0.348400        2.000000        0.00239095        0.01483159        0.01084949        0.01770405        0.00013555        0.00013765        0.00043732        0.00057610        0.00040186
      43         -0.342408        2.000000        0.00453271        0.03815207        0.01296896        0.07091861        0.00020131        0.00092584        0.00226296        0.00023013        0.00108943
      44         -0.338803        2.000000        0.00118367        0.01537032        0.00501137        0.10104109        0.00102871        0.00285545        0.00020586        0.00012520        0.00058469
      45         -0.335717        2.000000        0.00274783        0.03560978        0.02003002        0.02956428        0.00123620        0.00037995        0.00124631        0.00085314        0.00085511
      46         -0.327896        2.000000        0.00379958        0.13608803        0.01744939        0.03937713        0.00232505        0.00047077        0.00018193        0.00101793        0.00216345
      47         -0.310428        2.000000        0.00273280        0.00309123        0.01284430        0.00234152        0.00038404        0.00115799        0.00063887        0.00055988        0.00023380
      48         -0.301649        2.000000        0.00297495        0.00489686        0.03329002        0.00329826        0.00051879        0.00150176        0.00194783        0.00123029        0.00026477
      49         -0.296535        2.000000        0.00011461        0.09385100        0.02420413        0.12296254        0.00041184        0.00047863        0.00068548        0.00090600        0.00060048
      50         -0.295845        2.000000        0.00149838        0.01005664        0.00935341        0.02326934        0.00071819        0.00114478        0.00098475        0.00028176        0.00011650
      51         -0.292707        2.000000        0.00130233        0.08232727        0.08436393        0.11034027        0.00056150        0.00064404        0.00161191        0.00046820        0.00019250
      52         -0.277163        2.000000        0.00382435        0.06907391        0.02338720        0.10447233        0.00021352        0.00146921        0.00027004        0.00048526        0.00585672
      53         -0.258154        2.000000        0.00634235        0.11090756        0.06487811        0.16517219        0.00010018        0.00100091        0.00025544        0.00031217        0.00446385
      54         -0.241702        2.000000        0.09275984        0.08583903        0.44513876        0.01250420        0.00269756        0.00010556        0.00031342        0.00057693        0.00000784
      55         -0.238942        2.000000        0.09182524        0.17746363        0.35283282        0.01195775        0.00253202        0.00014685        0.00027428        0.00061073        0.00002154
      56         -0.224884        2.000000        0.00093192        0.00552683        0.00414240        0.00460284        0.00002433        0.00000342        0.00001503        0.00000380        0.00001351
      57         -0.220934        2.000000        0.00346713        0.10484443        0.02582401        0.12970738        0.00007592        0.00009089        0.00037829        0.00011315        0.00036260
      58         -0.209796        2.000000        0.00054193        0.01283813        0.00614479        0.01736699        0.00004201        0.00002940        0.00002914        0.00000658        0.00023778
      59         -0.206382        2.000000        0.00089735        0.01538682        0.00407014        0.02558909        0.00004273        0.00010628        0.00007821        0.00002250        0.00040456
      60         -0.177216        2.000000        0.00477539        0.07761476        0.02479794        0.13385445        0.00081637        0.00219364        0.00146587        0.00104808        0.00922910
      61         -0.161576        2.000000        0.00347682        0.07490657        0.02861241        0.12093908        0.00084059        0.00167279        0.00144794        0.00105400        0.00691278
      62         -0.088439        0.000000        0.00059510        0.06008791        0.02980702        0.08292983        0.00043543        0.00116272        0.00117125        0.00140077        0.00333218
      63         -0.046532        0.000000        0.00059634        0.02790525        0.01148373        0.03362784        0.00056385        0.00270555        0.00138792        0.00165656        0.00900139
      64         -0.027771        0.000000        0.00053337        0.00235107        0.00119919        0.00307284        0.00042408        0.00038537        0.00048056        0.00021752        0.00093794
      65         -0.021029        0.000000        0.00085569        0.01105353        0.00394480        0.01058410        0.00095577        0.00063724        0.00038114        0.00065226        0.00456091
      66         -0.003386        0.000000        0.00506520        0.00902970        0.00164642        0.00473976        0.00198879        0.00034320        0.00055496        0.00087604        0.00322150
      67         -0.002915        0.000000        0.00446049        0.02299600        0.00663236        0.03057270        0.00320940        0.00300650        0.00427457        0.00339857        0.01287195
      68          0.004102        0.000000        0.00444005        0.03405172        0.01831670        0.04838955        0.00243149        0.00305303        0.00679905        0.00334010        0.00541593
      69          0.040232        0.000000        0.03578214        0.04050779        0.01742287        0.05010404        0.00796798        0.00233623        0.00076521        0.00161191        0.00979060
      70          0.046754        0.000000        0.15436388        0.01967534        0.02481923        0.04041992        0.00515308        0.00037385        0.00042595        0.00665028        0.00463319
      71          0.049886        0.000000        0.11677555        0.00576694        0.05597140        0.00621766        0.00717396        0.00418160        0.00055045        0.00063224        0.00424682
      72          0.051621        0.000000        0.04265604        0.01021851        0.02458964        0.02456528        0.00431037        0.00169003        0.00597477        0.00689456        0.00131931
      73          0.065353        0.000000        0.00404516        0.03352560        0.01643235        0.04426371        0.00039814        0.00400510        0.00220514        0.00358891        0.00756313
      74          0.084912        0.000000        0.01098883        0.02765487        0.02901191        0.01058512        0.00610335        0.00971674        0.00832949        0.00483793        0.00153450
      75          0.092679        0.000000        0.01801007        0.01461383        0.03365858        0.02393849        0.00370137        0.00312178        0.01197653        0.00389799        0.00173487
      76          0.099716        0.000000        0.00403838        0.04044570        0.01930684        0.02658849        0.00134393        0.01036640        0.00912122        0.00289539        0.00163212
      77          0.107656        0.000000        0.00772618        0.03425995        0.01383863        0.01642289        0.00312964        0.00600235        0.00560431        0.00303342        0.00204757
      78          0.108115        0.000000        0.02069762        0.03987175        0.01536778        0.01538782        0.00035535        0.00389987        0.00493462        0.00147299        0.00328520
      79          0.113017        0.000000        0.02255696        0.01064526        0.00461985        0.00624723        0.00540900        0.00217803        0.00220561        0.00117666        0.00164263
      80          0.119906        0.000000        0.03501585        0.00284150        0.01025581        0.00679891        0.00077356        0.00130349        0.00071688        0.00154271        0.00199959
      81          0.124964        0.000000        0.00444948        0.00896266        0.00899332        0.03092609        0.00469016        0.00038492        0.00136625        0.00713640        0.00665979
      82          0.135143        0.000000        0.06115430        0.02266842        0.00795124        0.00453387        0.00278690        0.00487316        0.00265562        0.00208707        0.00112775
      83          0.142248        0.000000        0.05135396        0.00815222        0.00932087        0.01710278        0.00074179        0.00175521        0.00447681        0.00385082        0.00098572
      84          0.149995        0.000000        0.00557772        0.05069948        0.00640475        0.01106787        0.00086050        0.02242112        0.00284993        0.00568098        0.00080990
      85          0.159187        0.000000        0.01052766        0.00651327        0.02804391        0.01373660        0.00122632        0.00071291        0.00466237        0.00083279        0.00135821
      86          0.167614        0.000000        0.00891114        0.01295558        0.00300201        0.02782550        0.00427821        0.00292163        0.02309843        0.00194366        0.00392358
      87          0.173707        0.000000        0.02576250        0.02339507        0.00215408        0.02340221        0.00588354        0.00442130        0.00385192        0.00108780        0.00028759
      88          0.175745        0.000000        0.01163993        0.01007667        0.02058565        0.02846708        0.00088613        0.00852296        0.00293148        0.01371631        0.00558771
      89          0.186041        0.000000        0.00716883        0.02379437        0.02713828        0.01786551        0.00425646        0.00363497        0.00767808        0.00442499        0.00097703
      90          0.188486        0.000000        0.00446952        0.01160612        0.01471362        0.00363968        0.00317908        0.00377373        0.00203343        0.00122331        0.00137220
      91          0.192078        0.000000        0.00496896        0.01092874        0.05063398        0.01355778        0.00122739        0.00062615        0.00514971        0.00887705        0.00108505
      92          0.195776        0.000000        0.00103284        0.02334623        0.02584777        0.01038913        0.00749999        0.00448264        0.00200594        0.00194497        0.00296542
      93          0.206517        0.000000        0.01694010        0.00769334        0.03407043        0.00495008        0.00022892        0.00886980        0.00135770        0.00255918        0.00062454
      94          0.207589        0.000000        0.02398440        0.01036742        0.01599503        0.01179491        0.00058705        0.00473217        0.00142084        0.00172498        0.00040970
      95          0.219328        0.000000        0.02963795        0.02058136        0.02370352        0.00742481        0.00068517        0.00382628        0.00296537        0.00052568        0.00125550
      96          0.226428        0.000000        0.02625328        0.01615725        0.00736233        0.00344535        0.00282154        0.00334365        0.00398145        0.00450883        0.00110089
      97          0.229807        0.000000        0.00372423        0.00664531        0.02636123        0.00526121        0.00485330        0.00197008        0.00994632        0.00360834        0.00078927
      98          0.232946        0.000000        0.01717834        0.01767151        0.01785667        0.01388034        0.00437470        0.00571680        0.00665984        0.00924493        0.00414543
      99          0.242783        0.000000        0.00881939        0.01176876        0.02751650        0.00751058        0.00579924        0.00389822        0.00873248        0.00392992        0.00229505
     100          0.253535        0.000000        0.00086047        0.03050315        0.00407144        0.02900023        0.00076949        0.00282190        0.00154409        0.00359995        0.00076437
     101          0.257931        0.000000        0.00443133        0.01817058        0.03306044        0.03913469        0.00033984        0.00050789        0.00224902        0.00408632        0.00199669
     102          0.267907        0.000000        0.00601526        0.08958422        0.02059755        0.02588356        0.00074651        0.01715781        0.00093092        0.00623663        0.01429801
     103          0.273078        0.000000        0.00673588        0.04543994        0.04653582        0.10186965        0.00045162        0.00014294        0.00559789        0.00736273        0.00121240
     104          0.275791        0.000000        0.00275392        0.06064964        0.04832730        0.04427365        0.00261644        0.01118417        0.00967953        0.00682924        0.00398821
     105          0.283886        0.000000        0.01106181        0.03861991        0.04152983        0.05553744        0.00189157        0.01297533        0.01437538        0.01083846        0.01206042
     106          0.286251        0.000000        0.00575020        0.01921894        0.06621339        0.02833384        0.00275135        0.00969570        0.01400407        0.01684731        0.01032197
     107          0.295265        0.000000        0.01294026        0.03654216        0.04356302        0.06941970        0.00313603        0.00533293        0.00292221        0.01010475        0.00562299
     108          0.308923        0.000000        0.00361268        0.02734492        0.04725050        0.02357621        0.00440115        0.00378468        0.00527595        0.00245841        0.00103670
     109          0.311565        0.000000        0.01470094        0.01519986        0.07155534        0.01448286        0.00748214        0.00796482        0.00180915        0.00288867        0.00558218
     110          0.314671        0.000000        0.03572992        0.02587541        0.05791064        0.00950101        0.00272728        0.00813969        0.00186685        0.00520720        0.00588718
     111          0.323519        0.000000        0.03497561        0.03166953        0.10525297        0.04722982        0.00741187        0.00471587        0.01337747        0.00465339        0.00470413
