# Projected DOS for atomic kind N at iteration step i = 0, E(Fermi) =    -0.164373 a.u.
#     MO Eigenvalue [a.u.]      Occupation                 s                py                pz                px               d-2               d-1                d0               d+1               d+2
       1         -1.016958        2.000000        0.04736420        0.00121084        0.03152241        0.00358617        0.00018095        0.00005184        0.00071847        0.00076798        0.00000517
       2         -1.013327        2.000000        0.04841256        0.01702279        0.01851243        0.00065435        0.00058478        0.00094108        0.00001735        0.00000410        0.00016473
       3         -0.847057        2.000000        0.30762230        0.02378350        0.00603421        0.00087412        0.00120368        0.00188293        0.00004434        0.00000350        0.00009475
       4         -0.844861        2.000000        0.30730859        0.00101114        0.01567318        0.01080691        0.00057271        0.00000332        0.00130238        0.00170388        0.00007527
       5         -0.843673        2.000000        0.27530335        0.00257978        0.03009330        0.00270799        0.00235635        0.00007404        0.00001942        0.00053849        0.00001513
       6         -0.839763        2.000000        0.28280623        0.01286799        0.02031988        0.00116244        0.00210940        0.00003337        0.00013767        0.00067341        0.00007517
       7         -0.817357        2.000000        0.01373207        0.00705118        0.00297747        0.00822329        0.00005253        0.00017027        0.00010203        0.00011809        0.00003993
       8         -0.764746        2.000000        0.05502545        0.01536904        0.01319161        0.02487362        0.00054606        0.00035176        0.00036092        0.00084772        0.00038332
       9         -0.759037        2.000000        0.05834559        0.01802554        0.00868567        0.01617300        0.00016089        0.00048816        0.00019554        0.00088579        0.00038088
      10         -0.708011        2.000000        0.02376789        0.01536878        0.01201227        0.01793858        0.00040688        0.00079633        0.00065943        0.00054577        0.00024219
      11         -0.684499        2.000000        0.00406345        0.00235864        0.00375658        0.00138526        0.00008174        0.00030638        0.00010549        0.00013399        0.00006664
      12         -0.675076        2.000000        0.00899717        0.01386913        0.00233361        0.01515474        0.00010774        0.00014022        0.00012962        0.00023287        0.00027981
      13         -0.671622        2.000000        0.01527172        0.01343914        0.00868347        0.01629025        0.00006561        0.00016546        0.00014750        0.00045990        0.00034907
      14         -0.662569        2.000000        0.02149116        0.03022941        0.02959987        0.03846691        0.00071726        0.00142913        0.00112340        0.00238508        0.00088004
      15         -0.640305        2.000000        0.03576718        0.01899056        0.03939825        0.01645413        0.00047409        0.00132173        0.00087321        0.00176942        0.00103911
      16         -0.595758        2.000000        0.02674393        0.01058455        0.04052824        0.00492370        0.00087105        0.00124967        0.00095910        0.00030174        0.00023134
      17         -0.577146        2.000000        0.00427688        0.01093546        0.01053735        0.00994251        0.00025153        0.00019003        0.00014912        0.00002760        0.00011266
      18         -0.555857        2.000000        0.00690043        0.05565672        0.04151645        0.07449711        0.00044489        0.00037423        0.00100651        0.00121123        0.00137948
      19         -0.549423        2.000000        0.01658895        0.04757333        0.05986840        0.04771426        0.00112083        0.00193927        0.00188623        0.00218986        0.00116372
      20         -0.540775        2.000000        0.03172703        0.02983481        0.01999734        0.01040105        0.00009917        0.00222884        0.00030215        0.00045659        0.00040390
      21         -0.537365        2.000000        0.01927793        0.04937347        0.02093742        0.05502372        0.00014454        0.00046310        0.00060723        0.00050624        0.00122633
      22         -0.499879        2.000000        0.00480096        0.03330040        0.09180026        0.02710584        0.00131459        0.00165865        0.00246643        0.00156178        0.00157906
      23         -0.494858        2.000000        0.02093005        0.07028288        0.02718081        0.06691509        0.00032042        0.00225511        0.00124018        0.00254570        0.00122074
      24         -0.481840        2.000000        0.01464926        0.14347286        0.04336000        0.11206536        0.00041903        0.00221095        0.00193348        0.00122439        0.00119005
      25         -0.475269        2.000000        0.00402047        0.09239365        0.04975157        0.11660042        0.00047373        0.00108301        0.00114751        0.00044730        0.00235839
      26         -0.469098        2.000000        0.00144985        0.01862333        0.06732347        0.04962517        0.00099527        0.00033005        0.00141319        0.00054155        0.00056487
      27         -0.466348        2.000000        0.00240429        0.07888125        0.09289435        0.04415826        0.00129136        0.00247711        0.00235797        0.00137637        0.00013990
      28         -0.451195        2.000000        0.00331275        0.04177057        0.07594739        0.08798658        0.00041665        0.00168637        0.00268316        0.00260217        0.00074764
      29         -0.441500        2.000000        0.01499783        0.11250596        0.14931169        0.02871609        0.00034970        0.00402272        0.00141204        0.00312264        0.00056633
      30         -0.440274        2.000000        0.01853169        0.03374927        0.11095961        0.00537601        0.00012154        0.00199656        0.00197832        0.00066365        0.00028252
      31         -0.415949        2.000000        0.00049385        0.03923148        0.01911859        0.05122594        0.00044754        0.00105299        0.00164043        0.00158970        0.00044082
      32         -0.412663        2.000000        0.00023466        0.04252489        0.02652139        0.04450918        0.00037169        0.00041995        0.00189707        0.00128605        0.00099599
      33         -0.408761        2.000000        0.00291240        0.04973720        0.00658792        0.06434371        0.00107355        0.00259173        0.00392832        0.00057983        0.00070839
      34         -0.400475        2.000000        0.00669917        0.04722844        0.01702621        0.06547574        0.00094204        0.00263719        0.00262799        0.00067631        0.00042882
      35         -0.394167        2.000000        0.00287015        0.00796783        0.00323814        0.02528484        0.00018459        0.00025396        0.00034980        0.00027634        0.00013598
      36         -0.391372        2.000000        0.00142503        0.00432803        0.00350920        0.01465235        0.00026633        0.00005676        0.00018584        0.00006980        0.00010267
      37         -0.379091        2.000000        0.01167542        0.02312536        0.05264007        0.02431593        0.00105862        0.00072237        0.00070711        0.00107501        0.00046489
      38         -0.369195        2.000000        0.00678526        0.01135355        0.04211602        0.00202665        0.00094119        0.00198014        0.00074281        0.00088585        0.00018970
      39         -0.363246        2.000000        0.00570820        0.01318819        0.03528270        0.03241544        0.00089513        0.00071086        0.00560222        0.00236207        0.00029259
      40         -0.358095        2.000000        0.00435245        0.04201338        0.01223016        0.01850687        0.00037092        0.00332855        0.00083471        0.00240096        0.00078407
      41         -0.352871        2.000000        0.00161998        0.01088578        0.00618267        0.01639019        0.00008062        0.00063409        0.00047279        0.00006610        0.00104582
      42         -0.349391        2.000000        0.00117140        0.00854544        0.00644992        0.00361340        0.00047194        0.00152745        0.00061719        0.00070786        0.00015396
      43         -0.343664        2.000000        0.00479841        0.03201541        0.01154755        0.05804294        0.00017061        0.00057367        0.00174124        0.00019107        0.00099928
      44         -0.340332        2.000000        0.00240290        0.01511238        0.01679382        0.03416983        0.00089861        0.00131675        0.00030466        0.00025207        0.00047631
      45         -0.334771        2.000000        0.00367051        0.03959954        0.01299587        0.11562598        0.00070765        0.00135512        0.00110440        0.00095207        0.00133801
      46         -0.325615        2.000000        0.00299411        0.12832438        0.01364370        0.02352783        0.00264702        0.00041159        0.00024144        0.00107145        0.00236101
      47         -0.313365        2.000000        0.00280110        0.00508191        0.01296439        0.00103873        0.00046126        0.00150832        0.00082323        0.00073909        0.00020702
      48         -0.304267        2.000000        0.00234559        0.00219137        0.02289697        0.00154443        0.00057666        0.00162860        0.00166232        0.00112731        0.00026493
      49         -0.298263        2.000000        0.00082653        0.00522562        0.00774446        0.01458043        0.00044641        0.00073398        0.00090648        0.00025393        0.00006985
      50         -0.295691        2.000000        0.00023087        0.09554526        0.03488804        0.12682688        0.00036687        0.00032773        0.00068752        0.00092974        0.00041352
      51         -0.293899        2.000000        0.00139471        0.08743012        0.07304362        0.11177649        0.00055846        0.00071260        0.00132117        0.00049110        0.00028774
      52         -0.277091        2.000000        0.00508341        0.07950183        0.02355807        0.10912405        0.00030921        0.00145367        0.00032157        0.00057675        0.00589411
      53         -0.258666        2.000000        0.00752090        0.12783361        0.05983562        0.16502318        0.00013211        0.00106972        0.00032033        0.00035028        0.00467586
      54         -0.241335        2.000000        0.09242859        0.08786583        0.44907570        0.01185175        0.00259818        0.00008793        0.00026759        0.00056737        0.00000129
      55         -0.236905        2.000000        0.08612027        0.17401546        0.36053585        0.00927991        0.00254130        0.00016542        0.00028530        0.00058003        0.00001541
      56         -0.227715        2.000000        0.00098649        0.00341829        0.00308480        0.00143801        0.00002044        0.00000171        0.00000715        0.00000399        0.00000139
      57         -0.221231        2.000000        0.00533901        0.11864167        0.03016739        0.13446658        0.00011097        0.00007083        0.00036582        0.00009679        0.00036067
      58         -0.210611        2.000000        0.00050015        0.01253159        0.00676765        0.01703624        0.00003484        0.00002684        0.00003310        0.00000556        0.00022572
      59         -0.206362        2.000000        0.00129862        0.01755498        0.00428030        0.02819465        0.00005322        0.00012228        0.00007965        0.00001968        0.00042002
      60         -0.179742        2.000000        0.00655866        0.08878594        0.02449892        0.14260066        0.00086391        0.00209313        0.00137949        0.00094227        0.00872221
      61         -0.164373        2.000000        0.00458043        0.08119801        0.02791390        0.12540843        0.00087808        0.00161119        0.00134631        0.00095981        0.00651398
      62         -0.090505        0.000000        0.00071645        0.06011909        0.02855590        0.08321381        0.00043091        0.00112884        0.00109906        0.00133319        0.00336859
      63         -0.047011        0.000000        0.00082938        0.02635947        0.01026835        0.03147190        0.00063953        0.00273177        0.00133360        0.00169072        0.00921388
      64         -0.028583        0.000000        0.00023897        0.00212295        0.00091394        0.00275273        0.00028746        0.00027249        0.00055418        0.00021714        0.00052774
      65         -0.020873        0.000000        0.00074247        0.01208180        0.00482160        0.01516490        0.00079040        0.00080512        0.00048098        0.00084634        0.00473936
      66         -0.004188        0.000000        0.00928112        0.01768045        0.00575451        0.02647337        0.00355660        0.00372039        0.00487154        0.00293276        0.01183300
      67         -0.001271        0.000000        0.00517612        0.01586531        0.00313912        0.01088686        0.00269708        0.00035430        0.00092398        0.00138185        0.00538201
      68          0.004071        0.000000        0.00677363        0.03286633        0.01567447        0.04155193        0.00240922        0.00131602        0.00471365        0.00349422        0.00440853
      69          0.036668        0.000000        0.09281514        0.02284310        0.03616846        0.02582216        0.00916170        0.00175845        0.00093447        0.00101546        0.01024103
      70          0.038579        0.000000        0.15190802        0.01071269        0.07522817        0.00265348        0.00213784        0.00042374        0.00732730        0.00954107        0.00207270
      71          0.043238        0.000000        0.08375205        0.02242986        0.04320885        0.03033177        0.00846838        0.00553741        0.00035750        0.00089495        0.00345720
      72          0.049783        0.000000        0.01721968        0.01392092        0.02353067        0.02637707        0.00319767        0.00224220        0.00586873        0.00923783        0.00066195
      73          0.067912        0.000000        0.00199557        0.03024410        0.01422637        0.04379509        0.00072629        0.00446994        0.00245677        0.00196560        0.00919951
      74          0.087229        0.000000        0.01556555        0.03636991        0.02222764        0.01878364        0.00664975        0.01224409        0.00744847        0.00595506        0.00253229
      75          0.096555        0.000000        0.02435659        0.05882751        0.02411171        0.04396138        0.00409565        0.01419857        0.00900356        0.00586048        0.00270462
      76          0.099441        0.000000        0.01560748        0.02366322        0.01937440        0.01769193        0.00096878        0.00325720        0.00689850        0.00206432        0.00104870
      77          0.103648        0.000000        0.01097231        0.04388021        0.00936747        0.01752031        0.00006895        0.00419789        0.00479551        0.00067324        0.00455957
      78          0.105830        0.000000        0.01691109        0.03841694        0.01640860        0.02630812        0.00295871        0.00718526        0.00517042        0.00469485        0.00262114
      79          0.119805        0.000000        0.04923876        0.00340514        0.00822390        0.00532238        0.00373953        0.00018863        0.00159197        0.00145645        0.00141337
      80          0.122460        0.000000        0.01208689        0.01025601        0.00774184        0.00580524        0.00093144        0.00045989        0.00047316        0.00385905        0.00171647
      81          0.127429        0.000000        0.00270632        0.00682546        0.00949489        0.02552084        0.00427819        0.00015172        0.00175570        0.00673811        0.00625728
      82          0.136127        0.000000        0.07271449        0.01958691        0.01054842        0.00832954        0.00368837        0.00228699        0.00347173        0.00321574        0.00180330
      83          0.143178        0.000000        0.04293028        0.01097269        0.00762903        0.01926547        0.00094369        0.00148353        0.00558087        0.00399631        0.00101333
      84          0.155762        0.000000        0.00416239        0.00794344        0.02085363        0.02183247        0.00109235        0.00105861        0.01071447        0.00041219        0.00208125
      85          0.158257        0.000000        0.00597984        0.01935689        0.01163329        0.01090935        0.00198231        0.01266114        0.00374741        0.00056981        0.00117157
      86          0.169086        0.000000        0.03337331        0.02036978        0.00875814        0.03284933        0.00503590        0.00127536        0.00715164        0.00188540        0.00327859
      87          0.173030        0.000000        0.00663143        0.01001657        0.01313796        0.02493746        0.00144719        0.00694108        0.00856062        0.01038299        0.00372746
      88          0.176625        0.000000        0.01025355        0.01740256        0.00363210        0.01665713        0.00547991        0.00601319        0.00470838        0.00443364        0.00102717
      89          0.184637        0.000000        0.00256434        0.02834744        0.02796190        0.02237480        0.00678750        0.00352285        0.00863639        0.00402501        0.00126595
      90          0.187891        0.000000        0.00368884        0.00909894        0.01569528        0.00265496        0.00164033        0.00430911        0.00195838        0.00153248        0.00216342
      91          0.194293        0.000000        0.00239653        0.00842321        0.04654162        0.01024281        0.00129275        0.00104091        0.00302572        0.00830204        0.00100286
      92          0.195048        0.000000        0.00125963        0.02423339        0.02522323        0.01082077        0.00715498        0.00330564        0.00220320        0.00254637        0.00248449
      93          0.202537        0.000000        0.02827682        0.01821066        0.02824680        0.00536890        0.00030317        0.00303144        0.00183971        0.00240633        0.00048713
      94          0.210172        0.000000        0.01206934        0.00970244        0.01918254        0.00924698        0.00039634        0.01559464        0.00136109        0.00442819        0.00140244
      95          0.220329        0.000000        0.03612584        0.01916044        0.03189911        0.00723747        0.00084828        0.00515295        0.00106995        0.00331221        0.00180016
      96          0.224825        0.000000        0.00946923        0.01203833        0.03625771        0.00493120        0.00503700        0.00334885        0.01600684        0.00786550        0.00249808
      97          0.228659        0.000000        0.01516569        0.01130261        0.01168630        0.00758410        0.00289847        0.00323989        0.00498244        0.00704691        0.00200811
      98          0.238732        0.000000        0.01221992        0.00572769        0.03090729        0.00934537        0.00560502        0.00309493        0.00985264        0.00575010        0.00176299
      99          0.239995        0.000000        0.00878546        0.03705335        0.00727469        0.01193916        0.00376502        0.00644336        0.00258174        0.00102666        0.00390821
     100          0.249204        0.000000        0.00175483        0.03021089        0.00842484        0.02115568        0.00140415        0.00347953        0.00164580        0.00207416        0.00181666
     101          0.255976        0.000000        0.00538594        0.01780542        0.03343876        0.04758972        0.00058204        0.00029415        0.00210219        0.00465111        0.00184741
     102          0.270832        0.000000        0.00776846        0.04119416        0.04465026        0.09742367        0.00066070        0.00058624        0.00624776        0.00961389        0.00293307
     103          0.271868        0.000000        0.00777891        0.06471045        0.02672822        0.05063687        0.00064673        0.01811108        0.00341159        0.01064847        0.01442662
     104          0.276570        0.000000        0.00282189        0.08370400        0.03490615        0.02677044        0.00562286        0.00650763        0.00923183        0.00317282        0.00364672
     105          0.284302        0.000000        0.00517751        0.01783873        0.05141913        0.08074130        0.00348233        0.00257873        0.01505475        0.00508599        0.00662921
     106          0.285418        0.000000        0.00508324        0.03144810        0.03739425        0.02019164        0.00069808        0.02268540        0.00464005        0.01410985        0.02171396
     107          0.295288        0.000000        0.01594715        0.03836637        0.05183969        0.05102394        0.00348185        0.00248622        0.00605457        0.00736227        0.00646870
     108          0.307608        0.000000        0.01009001        0.03619776        0.07449467        0.01783921        0.00240028        0.00112962        0.00503631        0.00371424        0.00122069
     109          0.313900        0.000000        0.03804830        0.00884862        0.06645291        0.02091351        0.01170439        0.00184145        0.00480815        0.00485099        0.00839157
     110          0.318430        0.000000        0.03971270        0.03261709        0.06311445        0.01503730        0.00414163        0.00580799        0.00299458        0.00430647        0.00521567
     111          0.323868        0.000000        0.02029036        0.03103566        0.10932881        0.02733810        0.00281929        0.00820577        0.00638254        0.00145711        0.00024704
