# Projected DOS for atomic kind S at iteration step i = 0, E(Fermi) =    -0.157485 a.u.
#     MO Eigenvalue [a.u.]      Occupation                 s                py                pz                px               d-2               d-1                d0               d+1               d+2
       1         -1.028345        2.000000        0.00235598        0.00343769        0.00004365        0.00346527        0.00022571        0.00003039        0.00004089        0.00000057        0.00000475
       2         -1.022104        2.000000        0.00109050        0.00079162        0.00052116        0.00221420        0.00002180        0.00000630        0.00000008        0.00007702        0.00002132
       3         -0.856929        2.000000        0.00002626        0.00000741        0.00000965        0.00000029        0.00000197        0.00000052        0.00000017        0.00000006        0.00000006
       4         -0.850008        2.000000        0.00000619        0.00000154        0.00000077        0.00000040        0.00000017        0.00000001        0.00000001        0.00000015        0.00000002
       5         -0.842434        2.000000        0.00214319        0.00000943        0.00089977        0.00040042        0.00001332        0.00000197        0.00000395        0.00004722        0.00000228
       6         -0.830374        2.000000        0.00427811        0.00111350        0.00130999        0.00000070        0.00003025        0.00011220        0.00000063        0.00000066        0.00003097
       7         -0.809242        2.000000        0.15746124        0.01093855        0.02728565        0.00172467        0.00131389        0.00181526        0.00009695        0.00107771        0.00005316
       8         -0.761045        2.000000        0.00166109        0.00229612        0.00108472        0.00552604        0.00005729        0.00005579        0.00012922        0.00052593        0.00016225
       9         -0.753146        2.000000        0.00553220        0.00172203        0.00050392        0.00042264        0.00000004        0.00031491        0.00002766        0.00001132        0.00009022
      10         -0.706732        2.000000        0.00027116        0.02113021        0.00255042        0.03329079        0.00059600        0.00135895        0.00064772        0.00353713        0.00176904
      11         -0.680876        2.000000        0.03806766        0.00320618        0.00213563        0.00026151        0.00085639        0.00071079        0.00041942        0.00014328        0.00026720
      12         -0.672907        2.000000        0.00189029        0.00007353        0.00010347        0.00014153        0.00003321        0.00001539        0.00002618        0.00006281        0.00002783
      13         -0.668696        2.000000        0.03246244        0.00077414        0.00126067        0.00005539        0.00039952        0.00017911        0.00022645        0.00000001        0.00002551
      14         -0.658494        2.000000        0.12957852        0.00128654        0.00354386        0.00026817        0.00000002        0.00004513        0.00001684        0.00000091        0.00001215
      15         -0.633916        2.000000        0.00050691        0.00589956        0.00027900        0.00740436        0.00017183        0.00079045        0.00022034        0.00176977        0.00099797
      16         -0.593308        2.000000        0.03574365        0.00050446        0.00142381        0.00013496        0.00089809        0.00029909        0.00047649        0.00001742        0.00009128
      17         -0.575232        2.000000        0.00040921        0.00104499        0.00020976        0.00210362        0.00002196        0.00000776        0.00002081        0.00004582        0.00003090
      18         -0.557625        2.000000        0.00004336        0.00002893        0.00051063        0.00012976        0.00000771        0.00000090        0.00000266        0.00000786        0.00000461
      19         -0.549973        2.000000        0.00112579        0.00180554        0.00010969        0.00159931        0.00010946        0.00013806        0.00008349        0.00036098        0.00022489
      20         -0.541305        2.000000        0.00452178        0.00010179        0.00084370        0.00056624        0.00009802        0.00004193        0.00003146        0.00004360        0.00003030
      21         -0.536756        2.000000        0.00040863        0.00085104        0.00007687        0.00047487        0.00000326        0.00000539        0.00000179        0.00000759        0.00000024
      22         -0.506929        2.000000        0.02044343        0.00331436        0.00677544        0.00018037        0.00003337        0.00013802        0.00001142        0.00001331        0.00001991
      23         -0.493644        2.000000        0.00138467        0.02007447        0.00466351        0.03503660        0.00013169        0.00075543        0.00031347        0.00206270        0.00091619
      24         -0.482949        2.000000        0.00113626        0.00146411        0.00336040        0.00007517        0.00038897        0.00031879        0.00035415        0.00000072        0.00010091
      25         -0.478514        2.000000        0.00067284        0.00080923        0.00000999        0.00032718        0.00004827        0.00018740        0.00000085        0.00023014        0.00009673
      26         -0.469070        2.000000        0.06166373        0.02344188        0.02983053        0.00018221        0.00003655        0.00287858        0.00072025        0.00017709        0.00031885
      27         -0.463127        2.000000        0.00173327        0.01670274        0.00377410        0.02754523        0.00010024        0.00109098        0.00035047        0.00315473        0.00154886
      28         -0.450918        2.000000        0.00112537        0.00097977        0.00283659        0.00031689        0.00003847        0.00027248        0.00007411        0.00002770        0.00010591
      29         -0.440783        2.000000        0.00047998        0.00167578        0.00010661        0.00101167        0.00027502        0.00000000        0.00025153        0.00006022        0.00001125
      30         -0.439526        2.000000        0.00057061        0.00012487        0.00137524        0.00161590        0.00087052        0.00006386        0.00074325        0.00026829        0.00002085
      31         -0.418496        2.000000        0.00035904        0.00423073        0.00526021        0.00441847        0.00013301        0.00000097        0.00026675        0.00006655        0.00038579
      32         -0.414902        2.000000        0.00030453        0.00026202        0.00051101        0.00016906        0.00008762        0.00009738        0.00005301        0.00002081        0.00037828
      33         -0.407243        2.000000        0.00074331        0.00815498        0.00063237        0.01104787        0.00001560        0.00145305        0.00016069        0.00301865        0.00136680
      34         -0.401479        2.000000        0.00288529        0.00441128        0.00014704        0.00115773        0.00002309        0.00028461        0.00000145        0.00002493        0.00004367
      35         -0.392466        2.000000        0.00008188        0.00196221        0.00006274        0.00384420        0.00002350        0.00002700        0.00001147        0.00025260        0.00014874
      36         -0.390982        2.000000        0.00048383        0.00024639        0.00086792        0.00042654        0.00009978        0.00000017        0.00008542        0.00000938        0.00000036
      37         -0.377653        2.000000        0.00020702        0.02009194        0.00505032        0.03399586        0.00003933        0.00068276        0.00017648        0.00128559        0.00093786
      38         -0.363154        2.000000        0.00045190        0.00310486        0.00019598        0.00184057        0.00001434        0.00022175        0.00029611        0.00027643        0.00062877
      39         -0.360312        2.000000        0.00513129        0.00774886        0.02938442        0.02760423        0.00094100        0.00000625        0.00031598        0.00025361        0.00000884
      40         -0.349741        2.000000        0.00950681        0.01699998        0.02475483        0.02069829        0.00253474        0.00047768        0.00011351        0.00139960        0.00038031
      41         -0.348901        2.000000        0.00556919        0.00790684        0.01885017        0.01996610        0.00088223        0.00050151        0.00009013        0.00069524        0.00046089
      42         -0.347112        2.000000        0.00552107        0.07442738        0.00035071        0.00790207        0.00000689        0.00016445        0.00183161        0.00036687        0.00022770
      43         -0.340199        2.000000        0.00238596        0.01124980        0.00217796        0.00662344        0.00084613        0.00060159        0.00001511        0.00040175        0.00002573
      44         -0.337445        2.000000        0.00189046        0.00362153        0.00007154        0.06910670        0.00004595        0.00000380        0.00125546        0.00077659        0.00014125
      45         -0.335432        2.000000        0.00032012        0.00813176        0.01161057        0.00002018        0.00000188        0.00000716        0.00058840        0.00012457        0.00009714
      46         -0.327888        2.000000        0.00009010        0.04212590        0.01902706        0.00476395        0.00028015        0.00026591        0.00128950        0.00014358        0.00032821
      47         -0.309884        2.000000        0.03272913        0.05646309        0.19824013        0.01700740        0.00068634        0.00029504        0.00000003        0.00030759        0.00000456
      48         -0.303136        2.000000        0.00557845        0.00952157        0.02601273        0.00127479        0.00053901        0.00055377        0.00004664        0.00029388        0.00007613
      49         -0.295577        2.000000        0.00437583        0.00069575        0.01987899        0.00123309        0.00030328        0.00001537        0.00000912        0.00018096        0.00057183
      50         -0.294950        2.000000        0.02111255        0.01973787        0.07087272        0.01513388        0.00112382        0.00004774        0.00002062        0.00176774        0.00032035
      51         -0.290509        2.000000        0.00111350        0.00044943        0.01157090        0.00146265        0.00006550        0.00002791        0.00000071        0.00014074        0.00001610
      52         -0.276259        2.000000        0.00004880        0.00023440        0.00039397        0.00015451        0.00003667        0.00100423        0.00008655        0.00046866        0.00410945
      53         -0.255400        2.000000        0.00003618        0.00933754        0.01238948        0.00802535        0.00004926        0.00001574        0.00012793        0.00001205        0.00000055
      54         -0.242836        2.000000        0.00013310        0.00013466        0.00026892        0.00050732        0.00000164        0.00000019        0.00000691        0.00000960        0.00012171
      55         -0.240315        2.000000        0.00004511        0.00045306        0.00036515        0.00244787        0.00002451        0.00000145        0.00000963        0.00002197        0.00002740
      56         -0.223351        2.000000        0.00004513        0.14116809        0.09481201        0.17615227        0.00019565        0.00005604        0.00018814        0.00006437        0.00000222
      57         -0.219162        2.000000        0.00001527        0.00124601        0.00156102        0.00128084        0.00003433        0.00180212        0.00007502        0.00089356        0.00630063
      58         -0.209851        2.000000        0.00001700        0.01137500        0.00834731        0.01245702        0.00001021        0.00006946        0.00001003        0.00004284        0.00012252
      59         -0.207451        2.000000        0.00000134        0.00550138        0.00306600        0.00669778        0.00000266        0.00037544        0.00001152        0.00016772        0.00108419
      60         -0.174869        2.000000        0.00003579        0.00886397        0.00901759        0.00678632        0.00003703        0.00000036        0.00008773        0.00003403        0.00006175
      61         -0.157485        2.000000        0.00000250        0.00005012        0.00001063        0.00070246        0.00000958        0.00087985        0.00004807        0.00031963        0.00262264
      62         -0.089348        0.000000        0.00002250        0.04203189        0.03416636        0.03252021        0.00164441        0.00082926        0.00793974        0.00131669        0.00033680
      63         -0.046254        0.000000        0.00056716        0.00009485        0.00090445        0.00333404        0.00001629        0.00019069        0.00000502        0.00138526        0.00002886
      64         -0.028439        0.000000        0.00000185        0.00554093        0.00243331        0.00001415        0.00009153        0.00138158        0.00266196        0.00021192        0.00040751
      65         -0.020899        0.000000        0.00009965        0.00006797        0.00005977        0.00517647        0.00020981        0.00014921        0.00039175        0.00205455        0.00000170
      66         -0.003919        0.000000        0.00045529        0.12294394        0.00274890        0.16200798        0.00754329        0.05648597        0.00665934        0.09113591        0.04787665
      67         -0.002665        0.000000        0.00002612        0.00442233        0.00407874        0.00540756        0.00054433        0.00088659        0.00450738        0.00031216        0.00047751
      68          0.002962        0.000000        0.00055875        0.01272378        0.00024488        0.00318344        0.00043506        0.00120284        0.00079162        0.00079388        0.01254977
      69          0.038839        0.000000        0.01595391        0.02048370        0.00161005        0.01727303        0.00167131        0.00577055        0.01680894        0.01096384        0.00008435
      70          0.043814        0.000000        0.00041738        0.00394332        0.00075830        0.00164255        0.00016305        0.00283957        0.00589690        0.00009182        0.00004678
      71          0.046545        0.000000        0.00736313        0.00240559        0.00228871        0.00372862        0.00064074        0.00083270        0.00092672        0.00345544        0.00001220
      72          0.053872        0.000000        0.07149187        0.00536764        0.08490412        0.00050238        0.04287459        0.00534161        0.00740841        0.00596522        0.00031799
      73          0.063731        0.000000        0.00026432        0.00182081        0.00005421        0.00041927        0.00061958        0.00417881        0.00023976        0.00762187        0.03709032
      74          0.086368        0.000000        0.00008431        0.00469506        0.00150809        0.00723226        0.00021299        0.00018725        0.00017505        0.00001649        0.00044844
      75          0.094660        0.000000        0.00444754        0.00526797        0.00620267        0.00219611        0.00182240        0.00270738        0.00024498        0.00212302        0.00015892
      76          0.097415        0.000000        0.00078901        0.00088460        0.00812562        0.00328107        0.00096304        0.00102443        0.00053962        0.00463570        0.00000070
      77          0.107923        0.000000        0.00066130        0.00645894        0.00216729        0.00647074        0.00161225        0.00005257        0.00003654        0.00421593        0.00091940
      78          0.110102        0.000000        0.00056344        0.00171518        0.00003556        0.00138551        0.00060231        0.00002590        0.00007614        0.00009546        0.00025712
      79          0.115457        0.000000        0.00209075        0.00553976        0.01762094        0.00418690        0.01033567        0.02600063        0.01617735        0.00540557        0.00000629
      80          0.122604        0.000000        0.00104650        0.00124732        0.00541667        0.00079326        0.00794207        0.00192665        0.00057587        0.00304865        0.00003183
      81          0.125619        0.000000        0.00158328        0.00115327        0.00644771        0.00230942        0.01760628        0.00015286        0.00027399        0.00454576        0.00010521
      82          0.134209        0.000000        0.00094686        0.00072116        0.00370556        0.00390839        0.00629430        0.00201484        0.00028383        0.00114546        0.00013580
      83          0.143044        0.000000        0.00056570        0.00057199        0.00043050        0.00148554        0.00584522        0.00112383        0.00035207        0.00316516        0.00445704
      84          0.159073        0.000000        0.00115089        0.00238686        0.00517551        0.00075489        0.00060071        0.00240653        0.00068247        0.00243954        0.00000086
      85          0.159897        0.000000        0.00119458        0.00008513        0.00073704        0.00013453        0.00001388        0.00004557        0.00000197        0.00014213        0.00000912
      86          0.169776        0.000000        0.00942568        0.00063495        0.00037768        0.00040258        0.00058903        0.00095677        0.00021375        0.00063732        0.00000420
      87          0.172351        0.000000        0.00300740        0.00036822        0.00130864        0.00185771        0.00016670        0.00003689        0.00000002        0.00013502        0.00016362
      88          0.180389        0.000000        0.00172818        0.00632787        0.01088420        0.00034955        0.03380189        0.01124807        0.00033121        0.01230372        0.00001301
      89          0.189426        0.000000        0.01394502        0.00400283        0.02208005        0.00441744        0.00653259        0.01173775        0.01034993        0.00098132        0.00091538
      90          0.190429        0.000000        0.00778889        0.00146073        0.00578439        0.00331260        0.00354055        0.00084970        0.00574645        0.00786436        0.00128395
      91          0.193808        0.000000        0.00244652        0.00007351        0.00022520        0.00003404        0.00001178        0.00112696        0.00063414        0.00083217        0.00000184
      92          0.197147        0.000000        0.01187516        0.00013140        0.00140198        0.00198451        0.00604075        0.00296253        0.00328822        0.00008509        0.00095364
      93          0.210047        0.000000        0.01997310        0.01151433        0.03279465        0.00235353        0.02440423        0.00981693        0.01757243        0.00075301        0.00124922
      94          0.211033        0.000000        0.03994706        0.00285909        0.00572525        0.00050769        0.00371311        0.00340356        0.00290933        0.00015931        0.00081767
      95          0.217808        0.000000        0.00324254        0.00397554        0.01217580        0.00015943        0.00139149        0.02345452        0.00767373        0.00004224        0.00371179
      96          0.227376        0.000000        0.00314933        0.00161970        0.00348838        0.00149838        0.00066820        0.00080526        0.00170494        0.00354315        0.00001703
      97          0.230100        0.000000        0.01693320        0.01692947        0.02050918        0.00496209        0.00472410        0.03177977        0.00818160        0.00001513        0.00559297
      98          0.232487        0.000000        0.00291324        0.00538543        0.00755696        0.00720842        0.01344989        0.00271832        0.01171407        0.01225572        0.00022883
      99          0.246610        0.000000        0.01693494        0.00313942        0.00394219        0.00234056        0.01461862        0.00006319        0.00744909        0.00327065        0.00161841
     100          0.258761        0.000000        0.00111067        0.01163999        0.07332645        0.02506383        0.00031823        0.00068263        0.00626302        0.00000963        0.00067679
     101          0.261104        0.000000        0.00089576        0.05920968        0.00148595        0.02375404        0.00004304        0.00288749        0.00354020        0.00157203        0.00000354
     102          0.267026        0.000000        0.00019802        0.00584623        0.00052910        0.00065822        0.00000479        0.00798764        0.00157629        0.00000032        0.00108121
     103          0.272936        0.000000        0.00012759        0.00038393        0.00069791        0.00042710        0.00000460        0.00366094        0.00072078        0.00002825        0.00008024
     104          0.278817        0.000000        0.00059505        0.01322713        0.00045027        0.02069948        0.00021989        0.00000175        0.00063895        0.00002224        0.00019809
     105          0.283944        0.000000        0.00232546        0.00420974        0.01473594        0.01082698        0.00076278        0.00114908        0.00044689        0.00184848        0.00081135
     106          0.286353        0.000000        0.00003723        0.00012035        0.00090680        0.00164378        0.00111343        0.00077857        0.00086988        0.00022588        0.00010795
     107          0.298318        0.000000        0.00025780        0.03834093        0.03435709        0.04456211        0.00303072        0.00330175        0.00904136        0.00152900        0.00000683
     108          0.310984        0.000000        0.00080043        0.04559533        0.00094864        0.01253471        0.00017402        0.00105475        0.00016275        0.00259746        0.00142062
     109          0.313290        0.000000        0.00500384        0.00477570        0.02877990        0.01456636        0.00002689        0.01255204        0.00812132        0.00548988        0.00537581
     110          0.316821        0.000000        0.00080938        0.04209451        0.00462026        0.00010102        0.00014437        0.02134830        0.02751418        0.02481915        0.00055827
     111          0.328232        0.000000        0.00351896        0.00334054        0.00668988        0.00397057        0.00170528        0.01921187        0.00088934        0.01947735        0.00795860
