# Projected DOS for atomic kind N at iteration step i = 0, E(Fermi) =    -0.163461 a.u.
#     MO Eigenvalue [a.u.]      Occupation                 s                py                pz                px               d-2               d-1                d0               d+1               d+2
       1         -1.016200        2.000000        0.04862409        0.00125091        0.03190173        0.00357259        0.00019209        0.00005438        0.00072066        0.00076585        0.00000493
       2         -1.014239        2.000000        0.04675701        0.01673182        0.01821615        0.00061857        0.00054735        0.00093420        0.00001926        0.00000392        0.00016692
       3         -0.848685        2.000000        0.31488855        0.00086129        0.01418494        0.00982762        0.00056620        0.00000328        0.00140472        0.00192503        0.00008530
       4         -0.848415        2.000000        0.31099371        0.02457286        0.00545812        0.00059233        0.00121664        0.00184899        0.00006774        0.00000594        0.00012861
       5         -0.845458        2.000000        0.27593790        0.00266390        0.03041985        0.00248201        0.00240203        0.00007043        0.00002018        0.00051121        0.00001971
       6         -0.838889        2.000000        0.28040339        0.01362561        0.02152254        0.00050101        0.00215345        0.00004172        0.00006083        0.00061191        0.00007004
       7         -0.816462        2.000000        0.01174206        0.00694964        0.00293796        0.00846939        0.00003921        0.00016884        0.00010472        0.00012969        0.00003948
       8         -0.764325        2.000000        0.05210170        0.01403802        0.01476155        0.02397181        0.00055640        0.00032217        0.00035324        0.00079380        0.00039183
       9         -0.757731        2.000000        0.05407305        0.01978697        0.00846873        0.01637415        0.00012133        0.00054939        0.00019821        0.00093779        0.00037305
      10         -0.707599        2.000000        0.02307741        0.01521103        0.01262156        0.01818815        0.00042242        0.00076800        0.00068634        0.00056377        0.00023741
      11         -0.682970        2.000000        0.00404756        0.00267966        0.00389363        0.00145223        0.00007600        0.00033270        0.00009491        0.00014082        0.00007101
      12         -0.674276        2.000000        0.00891766        0.01441133        0.00235614        0.01552110        0.00011712        0.00014895        0.00014433        0.00024530        0.00026966
      13         -0.670711        2.000000        0.01580256        0.01510113        0.01076754        0.01833600        0.00007748        0.00019156        0.00018294        0.00053951        0.00038949
      14         -0.661952        2.000000        0.01963061        0.02849045        0.03027068        0.03649336        0.00069338        0.00140088        0.00109472        0.00231344        0.00084398
      15         -0.639458        2.000000        0.03482880        0.01981587        0.04129789        0.01619484        0.00045119        0.00143192        0.00085513        0.00174743        0.00104384
      16         -0.594933        2.000000        0.02663802        0.01092280        0.04362880        0.00510717        0.00088832        0.00127522        0.00098984        0.00029972        0.00024476
      17         -0.576406        2.000000        0.00442969        0.01165209        0.01166226        0.01078842        0.00021643        0.00022184        0.00010700        0.00002155        0.00010375
      18         -0.556992        2.000000        0.00678805        0.05388050        0.05387186        0.07635203        0.00055938        0.00021486        0.00129035        0.00134312        0.00126517
      19         -0.548654        2.000000        0.01470543        0.06113094        0.06188661        0.05590458        0.00096875        0.00241704        0.00165650        0.00234090        0.00150849
      20         -0.539823        2.000000        0.03251500        0.02785037        0.02109550        0.00762608        0.00016368        0.00197396        0.00040496        0.00037379        0.00028891
      21         -0.537035        2.000000        0.02031680        0.04802366        0.01756040        0.04887543        0.00016164        0.00049796        0.00059440        0.00034805        0.00104204
      22         -0.500961        2.000000        0.00437082        0.03277591        0.10039573        0.02826298        0.00130768        0.00163257        0.00243132        0.00140163        0.00150440
      23         -0.494446        2.000000        0.02100436        0.06668603        0.03314937        0.07004401        0.00036367        0.00204295        0.00155098        0.00235824        0.00113776
      24         -0.483157        2.000000        0.01556328        0.15972613        0.04837580        0.10280477        0.00045854        0.00275359        0.00186365        0.00121004        0.00100135
      25         -0.475825        2.000000        0.00384757        0.08412136        0.04428171        0.11841613        0.00047333        0.00105264        0.00100302        0.00050900        0.00236132
      26         -0.469174        2.000000        0.00146378        0.02180478        0.05806298        0.04163243        0.00078569        0.00042118        0.00105734        0.00045233        0.00054220
      27         -0.466865        2.000000        0.00185812        0.07403771        0.11149238        0.05247211        0.00134175        0.00251190        0.00268026        0.00157265        0.00012256
      28         -0.450910        2.000000        0.00234909        0.04405635        0.07725796        0.09723678        0.00061930        0.00144846        0.00321155        0.00286536        0.00080666
      29         -0.441308        2.000000        0.01633944        0.06211498        0.14631823        0.01455137        0.00035650        0.00270543        0.00249780        0.00175551        0.00033883
      30         -0.439833        2.000000        0.01675108        0.08174241        0.08337006        0.00929310        0.00004357        0.00356347        0.00063086        0.00151287        0.00053264
      31         -0.415644        2.000000        0.00057707        0.03935218        0.01942134        0.05191108        0.00047341        0.00104128        0.00160566        0.00164146        0.00047747
      32         -0.412486        2.000000        0.00022511        0.04185456        0.02511049        0.04573438        0.00039453        0.00048760        0.00183021        0.00130227        0.00095171
      33         -0.408390        2.000000        0.00308584        0.05268086        0.00650043        0.05783992        0.00103302        0.00286807        0.00356475        0.00054380        0.00065310
      34         -0.400361        2.000000        0.00723874        0.04198712        0.01562962        0.07063502        0.00104321        0.00232512        0.00277427        0.00073876        0.00045953
      35         -0.393807        2.000000        0.00276167        0.00774796        0.00292107        0.02293082        0.00020885        0.00025020        0.00032884        0.00029644        0.00013401
      36         -0.387650        2.000000        0.00152212        0.00457835        0.00321229        0.01331772        0.00028635        0.00007642        0.00021988        0.00004556        0.00010551
      37         -0.378623        2.000000        0.01132457        0.02382461        0.04777425        0.02359817        0.00102726        0.00081778        0.00070629        0.00101490        0.00045995
      38         -0.367714        2.000000        0.00755439        0.01675723        0.04188526        0.00354887        0.00106732        0.00267305        0.00102735        0.00109659        0.00026673
      39         -0.362178        2.000000        0.00495097        0.01288343        0.03191649        0.02915351        0.00088617        0.00078035        0.00496518        0.00223168        0.00033680
      40         -0.356590        2.000000        0.00337098        0.03615205        0.00532122        0.01934035        0.00021024        0.00216988        0.00069055        0.00187459        0.00063368
      41         -0.352562        2.000000        0.00197348        0.01116168        0.00928114        0.01916490        0.00020253        0.00146543        0.00085693        0.00026241        0.00101884
      42         -0.349737        2.000000        0.00160419        0.01223851        0.00842938        0.00603048        0.00041338        0.00122634        0.00061696        0.00082985        0.00023100
      43         -0.343176        2.000000        0.00490153        0.03729795        0.01218584        0.06097200        0.00012335        0.00044470        0.00196758        0.00021593        0.00100073
      44         -0.339936        2.000000        0.00154110        0.00901627        0.01085233        0.04760103        0.00101391        0.00210571        0.00030056        0.00015281        0.00053271
      45         -0.335474        2.000000        0.00320430        0.03997499        0.01604535        0.10013271        0.00081791        0.00107887        0.00124017        0.00096936        0.00119095
      46         -0.326450        2.000000        0.00324022        0.13387748        0.01532904        0.02813274        0.00266050        0.00044316        0.00022093        0.00108846        0.00234805
      47         -0.312545        2.000000        0.00289071        0.00431927        0.01279692        0.00136533        0.00041387        0.00140689        0.00073337        0.00066672        0.00021549
      48         -0.302958        2.000000        0.00263214        0.00270000        0.02615048        0.00176458        0.00055422        0.00162061        0.00174042        0.00116906        0.00027390
      49         -0.297475        2.000000        0.00106185        0.00744147        0.00938685        0.00968042        0.00048930        0.00084355        0.00101054        0.00032499        0.00006892
      50         -0.296047        2.000000        0.00014269        0.09448601        0.02947856        0.13667486        0.00037818        0.00037747        0.00065196        0.00088581        0.00051688
      51         -0.293525        2.000000        0.00135315        0.08546666        0.07768170        0.10764074        0.00057442        0.00071757        0.00137178        0.00047207        0.00021714
      52         -0.277122        2.000000        0.00459923        0.07566747        0.02377259        0.10753734        0.00027211        0.00146819        0.00029641        0.00054351        0.00592236
      53         -0.258600        2.000000        0.00708904        0.12185692        0.06164609        0.16429231        0.00011795        0.00105106        0.00029581        0.00033366        0.00465793
      54         -0.241554        2.000000        0.09225015        0.08668866        0.44713853        0.01200774        0.00264516        0.00009762        0.00029251        0.00056966        0.00000267
      55         -0.237471        2.000000        0.08762156        0.17484938        0.35776726        0.01019452        0.00253960        0.00015939        0.00028236        0.00058846        0.00001749
      56         -0.226588        2.000000        0.00094507        0.00357618        0.00328807        0.00186990        0.00002115        0.00000187        0.00000828        0.00000318        0.00000362
      57         -0.221156        2.000000        0.00467243        0.11422166        0.02832625        0.13297416        0.00009763        0.00007628        0.00036953        0.00010049        0.00035756
      58         -0.210264        2.000000        0.00051844        0.01253267        0.00663082        0.01715866        0.00003688        0.00002648        0.00003006        0.00000525        0.00022140
      59         -0.206158        2.000000        0.00111548        0.01655165        0.00411034        0.02688133        0.00004842        0.00012008        0.00008088        0.00002024        0.00042306
      60         -0.178784        2.000000        0.00585761        0.08463658        0.02451726        0.14020376        0.00085053        0.00214271        0.00142434        0.00097451        0.00892080
      61         -0.163461        2.000000        0.00421983        0.07934671        0.02806138        0.12341619        0.00087766        0.00162996        0.00138271        0.00098492        0.00671774
      62         -0.089512        0.000000        0.00067572        0.05999364        0.02880577        0.08279399        0.00043383        0.00114838        0.00113027        0.00136535        0.00340477
      63         -0.046758        0.000000        0.00073180        0.02702168        0.01067600        0.03228647        0.00060913        0.00273090        0.00136364        0.00168585        0.00923730
      64         -0.028089        0.000000        0.00028673        0.00201848        0.00094196        0.00276251        0.00030773        0.00029709        0.00052213        0.00020939        0.00057355
      65         -0.020944        0.000000        0.00080808        0.01178360        0.00447016        0.01337181        0.00087533        0.00074004        0.00042688        0.00077199        0.00478431
      66         -0.003605        0.000000        0.00722226        0.01929091        0.00572418        0.02729451        0.00327975        0.00345352        0.00480473        0.00310102        0.01204078
      67         -0.001998        0.000000        0.00515148        0.01368773        0.00253963        0.00842842        0.00249339        0.00032561        0.00078775        0.00119500        0.00479512
      68          0.004220        0.000000        0.00605144        0.03466625        0.01671197        0.04442138        0.00249143        0.00170661        0.00554815        0.00351871        0.00481955
      69          0.037830        0.000000        0.09047023        0.02612541        0.03874129        0.02627206        0.00868608        0.00246546        0.00079185        0.00102771        0.01016511
      70          0.041105        0.000000        0.16447432        0.00832898        0.06262850        0.00777342        0.00345221        0.00081314        0.00472608        0.00827922        0.00305428
      71          0.043490        0.000000        0.07084073        0.03019858        0.04424374        0.03255119        0.00675613        0.00675883        0.00060277        0.00198194        0.00314929
      72          0.050588        0.000000        0.01803340        0.01180224        0.02194144        0.02372578        0.00366800        0.00215121        0.00604255        0.00853834        0.00051375
      73          0.067065        0.000000        0.00166326        0.03142748        0.01435245        0.04367344        0.00064694        0.00439538        0.00238657        0.00232909        0.00895014
      74          0.086251        0.000000        0.01598156        0.02186775        0.02706421        0.02596407        0.00746381        0.00787228        0.01063902        0.00483667        0.00279998
      75          0.095372        0.000000        0.02109657        0.03854198        0.03150316        0.04161110        0.00395613        0.01000739        0.01111209        0.00455190        0.00253521
      76          0.099553        0.000000        0.01308314        0.02680708        0.01834226        0.02186549        0.00104508        0.00461661        0.00714289        0.00325237        0.00185801
      77          0.104863        0.000000        0.01694797        0.04581019        0.00796061        0.01091505        0.00018059        0.00548068        0.00302541        0.00093334        0.00354836
      78          0.106682        0.000000        0.01437176        0.04796412        0.01354711        0.02273162        0.00292027        0.00859133        0.00454015        0.00489433        0.00221299
      79          0.118355        0.000000        0.03787416        0.00435404        0.00518927        0.00520006        0.00501908        0.00121611        0.00191998        0.00068543        0.00141145
      80          0.121470        0.000000        0.02132425        0.00783129        0.00855721        0.00626558        0.00039127        0.00024223        0.00030438        0.00343250        0.00189967
      81          0.126573        0.000000        0.00302067        0.00748682        0.00978440        0.02719410        0.00431350        0.00021871        0.00167316        0.00692888        0.00637030
      82          0.135940        0.000000        0.07297555        0.02029820        0.00987913        0.00671938        0.00349319        0.00313491        0.00300243        0.00251256        0.00165216
      83          0.143392        0.000000        0.04425855        0.01088865        0.00769932        0.01980169        0.00084229        0.00149212        0.00516283        0.00461739        0.00109168
      84          0.152626        0.000000        0.00459039        0.03107754        0.00602708        0.00987490        0.00139469        0.01659855        0.00227397        0.00189446        0.00076029
      85          0.156413        0.000000        0.00646959        0.00651370        0.02489809        0.01992318        0.00091760        0.00057868        0.00977810        0.00036376        0.00165643
      86          0.168483        0.000000        0.02259123        0.01541202        0.00682093        0.02870754        0.00469342        0.00188985        0.01266706        0.00199749        0.00343859
      87          0.172821        0.000000        0.01569164        0.01281025        0.01576512        0.03275086        0.00275768        0.00548424        0.00782407        0.00852189        0.00409773
      88          0.177277        0.000000        0.00942920        0.01702900        0.00518548        0.01392431        0.00462137        0.00699791        0.00272643        0.00663289        0.00097829
      89          0.184879        0.000000        0.00373023        0.02788872        0.02934013        0.02074770        0.00623720        0.00365587        0.00809769        0.00420858        0.00119134
      90          0.188166        0.000000        0.00442184        0.01055293        0.01509044        0.00254310        0.00226065        0.00434521        0.00171281        0.00135061        0.00155532
      91          0.193334        0.000000        0.00224821        0.00832561        0.04706130        0.01206402        0.00119357        0.00087583        0.00384179        0.00890822        0.00135483
      92          0.195241        0.000000        0.00103553        0.02426984        0.02422146        0.01023960        0.00717587        0.00359033        0.00204566        0.00205731        0.00268043
      93          0.204123        0.000000        0.02942427        0.01501823        0.03135830        0.00495871        0.00025412        0.00391178        0.00173689        0.00227186        0.00046279
      94          0.208981        0.000000        0.01224851        0.00886788        0.01532035        0.01054867        0.00021850        0.01307535        0.00100418        0.00344057        0.00095810
      95          0.220722        0.000000        0.03447290        0.02086361        0.03119533        0.00647014        0.00052151        0.00383703        0.00220206        0.00156177        0.00125312
      96          0.226339        0.000000        0.01525431        0.01715976        0.01724547        0.00431833        0.00353918        0.00421868        0.00622821        0.00481039        0.00212445
      97          0.229410        0.000000        0.01344495        0.00501574        0.02923286        0.00864055        0.00413210        0.00257710        0.01382189        0.01155040        0.00273050
      98          0.236749        0.000000        0.00548175        0.02380412        0.00902383        0.01170247        0.00555990        0.00404998        0.00252490        0.00195073        0.00268797
      99          0.239847        0.000000        0.01396573        0.01364506        0.02951442        0.00925239        0.00490147        0.00464283        0.01002198        0.00497394        0.00247018
     100          0.250237        0.000000        0.00151790        0.02889346        0.00699959        0.02302465        0.00108257        0.00353084        0.00157438        0.00262678        0.00168977
     101          0.256682        0.000000        0.00513771        0.01879774        0.03297537        0.04533025        0.00051644        0.00038590        0.00217976        0.00448508        0.00182892
     102          0.270307        0.000000        0.00569070        0.06973028        0.01917474        0.03504310        0.00078575        0.01836606        0.00075037        0.00926585        0.01600084
     103          0.271989        0.000000        0.00962602        0.05249658        0.04500015        0.10369092        0.00044942        0.00090361        0.00586406        0.00762034        0.00163020
     104          0.275474        0.000000        0.00181107        0.07210253        0.04636172        0.03404767        0.00435522        0.00850144        0.01087606        0.00421494        0.00291410
     105          0.284578        0.000000        0.00955031        0.03014475        0.03351822        0.04539538        0.00144758        0.01714264        0.00703025        0.01082828        0.01558279
     106          0.285968        0.000000        0.00220937        0.02529211        0.05540675        0.06158061        0.00227090        0.00657305        0.01377143        0.01156893        0.01060136
     107          0.295067        0.000000        0.01763981        0.03533604        0.04838619        0.05007218        0.00390470        0.00280596        0.00517584        0.00836608        0.00627158
     108          0.308211        0.000000        0.00683127        0.03434408        0.07452362        0.01552587        0.00217299        0.00139167        0.00523328        0.00317255        0.00072358
     109          0.314879        0.000000        0.03437733        0.00716814        0.07053763        0.02641397        0.01183904        0.00279711        0.00443606        0.00292372        0.00779130
     110          0.317345        0.000000        0.03322215        0.03306180        0.04534097        0.00975230        0.00418985        0.00628622        0.00349097        0.00626455        0.00718422
     111          0.323853        0.000000        0.02655316        0.03093001        0.10990438        0.03038852        0.00403132        0.00778388        0.00792046        0.00174928        0.00080395
