# Projected DOS for atomic kind C at iteration step i = 0, E(Fermi) =    -0.156628 a.u.
#     MO Eigenvalue [a.u.]      Occupation                 s                py                pz                px               d-2               d-1                d0               d+1               d+2
       1         -1.041896        2.000000        0.15084485        0.05013196        0.11713440        0.13137755        0.02013837        0.01508825        0.00971765        0.03167876        0.00704541
       2         -1.030059        2.000000        0.15106725        0.14422148        0.06959009        0.08168584        0.03796513        0.02000560        0.01251691        0.00669790        0.00358059
       3         -0.849503        2.000000        0.16448478        0.03632339        0.07101721        0.03219564        0.00539304        0.00786348        0.01217992        0.01921751        0.00118701
       4         -0.838881        2.000000        0.16232904        0.04760573        0.05244552        0.03702693        0.01566314        0.02006512        0.00556220        0.00205932        0.00343354
       5         -0.831801        2.000000        0.14872547        0.12387476        0.11253617        0.05868844        0.03970132        0.01257343        0.02124138        0.02428712        0.00763749
       6         -0.830559        2.000000        0.13012838        0.07743680        0.16427761        0.07747772        0.03345772        0.02587957        0.01918322        0.01695845        0.00549110
       7         -0.807128        2.000000        0.30946653        0.12008971        0.06221888        0.14335912        0.01384531        0.01092475        0.00231595        0.01260434        0.00121094
       8         -0.763525        2.000000        0.35061652        0.08179537        0.14655225        0.10458213        0.00856685        0.00891546        0.00390549        0.00628447        0.00362567
       9         -0.755978        2.000000        0.33171888        0.13618334        0.13110298        0.09774987        0.00822942        0.00539301        0.00636741        0.01012228        0.00251624
      10         -0.708319        2.000000        0.33936770        0.11680679        0.07244919        0.16172932        0.00692187        0.01116566        0.00706506        0.00863162        0.00556104
      11         -0.687573        2.000000        0.33827530        0.12603535        0.13778536        0.09013906        0.01072207        0.01287615        0.01151638        0.01223101        0.00626940
      12         -0.675556        2.000000        0.37523530        0.12235749        0.13188985        0.08788665        0.01448341        0.01861079        0.01731931        0.01384005        0.00520014
      13         -0.670603        2.000000        0.32925161        0.12129837        0.15066806        0.07695383        0.01633023        0.01863388        0.01531655        0.02066486        0.00937338
      14         -0.658369        2.000000        0.27786745        0.08534489        0.11375820        0.08175093        0.01304003        0.01837083        0.01389639        0.02561974        0.01426637
      15         -0.632622        2.000000        0.36005721        0.09120523        0.09097453        0.10312160        0.01438635        0.02047846        0.01920865        0.02439590        0.01172933
      16         -0.595345        2.000000        0.21242831        0.16644978        0.08020856        0.20598302        0.00552782        0.01267912        0.00845951        0.01543135        0.00790252
      17         -0.579332        2.000000        0.20753231        0.17084769        0.14066952        0.14596366        0.00534087        0.00489435        0.00591056        0.00667932        0.00256272
      18         -0.559693        2.000000        0.19676049        0.13288729        0.17590186        0.12172432        0.00249558        0.00362918        0.00298106        0.00332876        0.00124227
      19         -0.547934        2.000000        0.22430040        0.10568895        0.24610118        0.08075504        0.00540510        0.00486176        0.00447009        0.00471312        0.00236435
      20         -0.542528        2.000000        0.18253921        0.15658880        0.27208792        0.05991374        0.00518871        0.00649086        0.00481815        0.00836844        0.00423181
      21         -0.534463        2.000000        0.19338626        0.14430239        0.20244662        0.07878519        0.00995213        0.00948178        0.00677783        0.00199067        0.00154868
      22         -0.505728        2.000000        0.15199843        0.12163652        0.16502492        0.11692363        0.00682013        0.00818549        0.00697589        0.00793538        0.00337121
      23         -0.495676        2.000000        0.08086834        0.11114727        0.17258107        0.10561325        0.00777631        0.01010982        0.00538405        0.00557778        0.00306355
      24         -0.484124        2.000000        0.07562091        0.14451156        0.14715223        0.07853744        0.00711569        0.01250920        0.00745452        0.00654408        0.00315713
      25         -0.472733        2.000000        0.09122475        0.06736554        0.19722373        0.07704483        0.00921789        0.01257689        0.01179705        0.01099140        0.00415368
      26         -0.465516        2.000000        0.07404381        0.11895371        0.25965714        0.05807195        0.00637041        0.00928508        0.00686541        0.01089058        0.00535879
      27         -0.463489        2.000000        0.11633857        0.09040851        0.11270848        0.12070494        0.01216198        0.01338892        0.01420913        0.00966822        0.00390809
      28         -0.451854        2.000000        0.04594587        0.24502320        0.12123877        0.07278032        0.01855782        0.01020634        0.01606052        0.00568202        0.00438251
      29         -0.446186        2.000000        0.04254943        0.08816464        0.20126603        0.12283601        0.01170575        0.01572510        0.01416732        0.00945661        0.00349054
      30         -0.440228        2.000000        0.11438505        0.12855877        0.05298093        0.13326623        0.01249985        0.01628911        0.01428572        0.01064190        0.00514261
      31         -0.425947        2.000000        0.00088064        0.15788376        0.13820184        0.18569560        0.00592598        0.00801479        0.01645933        0.00250328        0.01459034
      32         -0.417910        2.000000        0.00126207        0.20084666        0.06671796        0.22101279        0.00408830        0.00484870        0.00422688        0.00863783        0.02639945
      33         -0.408790        2.000000        0.05912893        0.11338030        0.14679769        0.21830621        0.00946637        0.01135524        0.01105098        0.01013025        0.00607393
      34         -0.398571        2.000000        0.03890389        0.19276038        0.13760680        0.15971591        0.00941578        0.01144339        0.01283443        0.01426914        0.00857140
      35         -0.392537        2.000000        0.05939858        0.06616462        0.40740881        0.11067956        0.00519513        0.00532852        0.02731192        0.01819079        0.00457813
      36         -0.386944        2.000000        0.06004001        0.28989880        0.17890952        0.10174630        0.00409171        0.02785124        0.00786425        0.01100060        0.01380078
      37         -0.374340        2.000000        0.02977648        0.17191704        0.21720027        0.18696213        0.00714140        0.01669497        0.01351912        0.01510780        0.01094880
      38         -0.363688        2.000000        0.02895067        0.21194187        0.24389207        0.15444155        0.00620071        0.01301140        0.01215303        0.00925812        0.00335494
      39         -0.360016        2.000000        0.01556820        0.20681681        0.22520053        0.24815153        0.00884419        0.00891013        0.00855288        0.00968595        0.00642807
      40         -0.354206        2.000000        0.01222609        0.21818118        0.20373662        0.25344436        0.01172967        0.01062312        0.01414395        0.01127249        0.00343649
      41         -0.349900        2.000000        0.01837963        0.29990138        0.13633695        0.21508522        0.01203260        0.02502130        0.01243126        0.00658981        0.01237408
      42         -0.345981        2.000000        0.02263208        0.18312401        0.21992367        0.21980971        0.01624742        0.01440558        0.01455474        0.00916755        0.01045554
      43         -0.344310        2.000000        0.01603708        0.20923382        0.22644875        0.20915747        0.00947138        0.01209030        0.00960842        0.02156342        0.01663821
      44         -0.335877        2.000000        0.00541133        0.18495832        0.15456982        0.30250793        0.00747580        0.01186656        0.00581846        0.00985293        0.02371219
      45         -0.333907        2.000000        0.01336713        0.23493510        0.15124393        0.17066652        0.00780492        0.01997099        0.01331663        0.01996274        0.01693937
      46         -0.326173        2.000000        0.00406102        0.19344774        0.13376628        0.22523608        0.00428021        0.01209442        0.01186795        0.01173779        0.03372148
      47         -0.312637        2.000000        0.01955559        0.14767356        0.16722219        0.12701988        0.01149557        0.02013485        0.01795077        0.01273643        0.00475328
      48         -0.306717        2.000000        0.01593879        0.10543943        0.26518953        0.11153214        0.01489771        0.01475502        0.03037944        0.01930524        0.00638437
      49         -0.296375        2.000000        0.01905509        0.19847344        0.11500292        0.05431449        0.00481491        0.02189722        0.00646151        0.02280852        0.01079683
      50         -0.292956        2.000000        0.00107555        0.13897266        0.06140181        0.17036909        0.00747002        0.01835076        0.02839569        0.01761970        0.01869145
      51         -0.290429        2.000000        0.00192538        0.10790131        0.09758317        0.16848033        0.00833510        0.00972122        0.02404576        0.01603837        0.03261414
      52         -0.275040        2.000000        0.00094818        0.21631075        0.15595553        0.26981339        0.00592187        0.00926787        0.01896659        0.01511440        0.03448911
      53         -0.253567        2.000000        0.00112909        0.15990988        0.09473383        0.18957351        0.00586310        0.01103462        0.02499219        0.01715908        0.04260946
      54         -0.248839        2.000000        0.05107820        0.06580526        0.06599472        0.01879714        0.00793142        0.03769540        0.00914601        0.00201287        0.01145732
      55         -0.237636        2.000000        0.04823345        0.02285748        0.09119232        0.01937173        0.00813502        0.01514630        0.03643350        0.00497841        0.00072573
      56         -0.227017        2.000000        0.00176741        0.14989018        0.13277365        0.16636800        0.01604620        0.00771342        0.04413585        0.01177213        0.01754001
      57         -0.218961        2.000000        0.00095194        0.20853586        0.11284720        0.27354485        0.00551996        0.01767489        0.01949723        0.01526913        0.05507449
      58         -0.213269        2.000000        0.00060187        0.20780923        0.13135172        0.32205666        0.00847389        0.01407634        0.01756684        0.01175046        0.05123759
      59         -0.209172        2.000000        0.00049523        0.20870524        0.13989756        0.27112962        0.00927503        0.01475908        0.02359033        0.01036116        0.05313008
      60         -0.175659        2.000000        0.00075260        0.19036566        0.10561017        0.25669094        0.00719723        0.01045063        0.02305418        0.01592836        0.03915570
      61         -0.156628        2.000000        0.00060471        0.19675032        0.13271056        0.26762503        0.00691300        0.01224658        0.02421630        0.01511267        0.03889559
      62         -0.093261        0.000000        0.00120982        0.16638716        0.12883626        0.19103996        0.00761983        0.01862987        0.02220378        0.01340677        0.05802736
      63         -0.044460        0.000000        0.00172042        0.23983183        0.15435808        0.30187527        0.01296479        0.01809236        0.03256715        0.01771009        0.05615131
      64         -0.028113        0.000000        0.00191903        0.24916690        0.13186032        0.33579501        0.01842596        0.02499374        0.04141475        0.03148380        0.04686290
      65         -0.020706        0.000000        0.00183855        0.21952306        0.13908962        0.29704801        0.01744999        0.01784333        0.03731960        0.02304673        0.05235112
      66         -0.005371        0.000000        0.01384227        0.21546208        0.13176276        0.26646660        0.01100212        0.02902098        0.02254314        0.01704167        0.04686695
      67         -0.002994        0.000000        0.09001415        0.10012176        0.06358171        0.10837798        0.01177050        0.02047304        0.01961259        0.01156705        0.01917314
      68         -0.000282        0.000000        0.00498860        0.17160643        0.15410019        0.30845931        0.01699845        0.02105494        0.03124687        0.01941834        0.05519252
      69          0.036530        0.000000        0.01827165        0.17454128        0.12053003        0.16729933        0.01417944        0.01581572        0.03337574        0.02394259        0.03670164
      70          0.048626        0.000000        0.04741670        0.01809438        0.05626227        0.02918926        0.00423348        0.00413547        0.01043514        0.01267800        0.00231972
      71          0.048740        0.000000        0.04310543        0.03971932        0.03778085        0.02490586        0.00406466        0.00967870        0.00395823        0.01219873        0.00334492
      72          0.053047        0.000000        0.03271674        0.09489769        0.12536181        0.13901257        0.02896603        0.03984786        0.01783230        0.04570037        0.01244631
      73          0.064926        0.000000        0.00561084        0.24864715        0.17110233        0.22899799        0.01532013        0.00667577        0.03160742        0.01761041        0.02714654
      74          0.090866        0.000000        0.04009338        0.08937127        0.10340313        0.05543874        0.04027870        0.04609044        0.02527632        0.03106242        0.01928858
      75          0.097293        0.000000        0.12257273        0.05135918        0.06720392        0.04265895        0.03850792        0.03149991        0.04515161        0.03699537        0.01468236
      76          0.099391        0.000000        0.12837056        0.06488700        0.03222561        0.04456230        0.02350964        0.03874432        0.02598017        0.01913910        0.01137810
      77          0.100335        0.000000        0.18671268        0.05123113        0.05802202        0.05468965        0.02602893        0.04590185        0.03483999        0.03477518        0.01841019
      78          0.110883        0.000000        0.17163272        0.05495188        0.08111458        0.06706307        0.02339503        0.03171088        0.01050631        0.02026347        0.00784640
      79          0.119850        0.000000        0.20071505        0.08357393        0.10265126        0.06604049        0.01809216        0.02653794        0.01976594        0.02178752        0.00981408
      80          0.121973        0.000000        0.20060449        0.14221791        0.05704579        0.16393120        0.03945245        0.02264884        0.01457063        0.02457504        0.01732991
      81          0.125889        0.000000        0.02944333        0.20983234        0.13333266        0.33901289        0.01382045        0.01852127        0.02167730        0.01744209        0.01902949
      82          0.127010        0.000000        0.13848774        0.15372950        0.11415463        0.23942256        0.03059141        0.02051896        0.01724737        0.02853258        0.01139812
      83          0.139497        0.000000        0.23096950        0.07654556        0.06754304        0.07221595        0.03681171        0.02344750        0.01036658        0.04186838        0.01311166
      84          0.150629        0.000000        0.13871654        0.10887936        0.07918482        0.02394035        0.00756973        0.02449018        0.00324337        0.00898770        0.01636761
      85          0.157644        0.000000        0.11725542        0.03343732        0.12906150        0.03706971        0.00532815        0.01053877        0.03008072        0.03092301        0.00396151
      86          0.168286        0.000000        0.26135944        0.08355647        0.04139751        0.04519587        0.01750544        0.03450831        0.02972727        0.02591055        0.00444867
      87          0.180149        0.000000        0.30906313        0.05723366        0.04770473        0.05239779        0.06081902        0.03418658        0.02078328        0.04904111        0.01267658
      88          0.184385        0.000000        0.21724656        0.05470180        0.08726641        0.06105488        0.05552636        0.04732265        0.03011517        0.04284600        0.01647081
      89          0.188025        0.000000        0.38672369        0.01965812        0.05696121        0.03109444        0.07101751        0.01924337        0.03389124        0.05217037        0.00515960
      90          0.192066        0.000000        0.27514758        0.06323357        0.08056955        0.03793408        0.05109526        0.03770698        0.01489014        0.03094149        0.01111069
      91          0.194342        0.000000        0.28596527        0.05377002        0.08312180        0.02180487        0.05917698        0.04661020        0.02403272        0.04597069        0.01619554
      92          0.197230        0.000000        0.23344551        0.04661062        0.10384489        0.04933554        0.04160260        0.04746874        0.01568040        0.04033843        0.01282182
      93          0.203472        0.000000        0.15854125        0.06553737        0.10457427        0.04477450        0.05039854        0.03641240        0.02160007        0.05599504        0.01384927
      94          0.215871        0.000000        0.21635341        0.06979121        0.05953576        0.07632326        0.06736932        0.04951220        0.06528406        0.03580345        0.00762748
      95          0.218269        0.000000        0.21429710        0.07207384        0.07601984        0.06165939        0.04480263        0.04828977        0.01097812        0.04295689        0.01246976
      96          0.226757        0.000000        0.16272653        0.06202342        0.10199691        0.06820763        0.05734311        0.04002875        0.03405796        0.03495715        0.00929146
      97          0.229095        0.000000        0.16240141        0.06389451        0.06048320        0.05947499        0.06506582        0.03761502        0.03092242        0.04684613        0.00800766
      98          0.237840        0.000000        0.21863914        0.06580884        0.10082826        0.06915412        0.05437349        0.02505008        0.03848110        0.02768973        0.01719263
      99          0.248473        0.000000        0.22312140        0.08658318        0.07219972        0.07498499        0.01724175        0.06638989        0.01362926        0.04915702        0.02908490
     100          0.256630        0.000000        0.21907555        0.06589702        0.07798978        0.05164364        0.05477713        0.04525998        0.03130416        0.04752830        0.01621828
     101          0.257973        0.000000        0.02586509        0.20857035        0.14038277        0.21937029        0.00477626        0.00647610        0.00257257        0.00587415        0.00703929
     102          0.268191        0.000000        0.19306008        0.09688002        0.07398459        0.09893801        0.03373230        0.03945437        0.02689235        0.03692810        0.01002817
     103          0.272890        0.000000        0.07392497        0.10615370        0.13758455        0.19911314        0.01340056        0.03108734        0.01028217        0.01794237        0.00931664
     104          0.278969        0.000000        0.12923305        0.11654662        0.04042511        0.14232701        0.07909617        0.02217025        0.02304779        0.02465465        0.00876897
     105          0.285523        0.000000        0.12749897        0.09461008        0.10465772        0.09715331        0.03061804        0.04786039        0.03956843        0.02429668        0.01170571
     106          0.286181        0.000000        0.12346643        0.05764623        0.11239608        0.04684643        0.03320583        0.04867763        0.02011711        0.02620741        0.01219649
     107          0.298667        0.000000        0.02707657        0.13198373        0.08404082        0.12964620        0.02182611        0.02218628        0.01578692        0.01788265        0.00797294
     108          0.305992        0.000000        0.11453626        0.08897438        0.10256600        0.07630063        0.03879972        0.06379480        0.02776839        0.05284651        0.01366049
     109          0.313165        0.000000        0.08312911        0.10157641        0.10354877        0.04381759        0.04009932        0.07460595        0.01962664        0.02961836        0.01197137
     110          0.316717        0.000000        0.14584819        0.08736488        0.10236556        0.07289090        0.07233712        0.05473019        0.03119809        0.06685665        0.01280038
     111          0.323042        0.000000        0.08107179        0.06924965        0.12858521        0.08206494        0.04283516        0.02091610        0.06274278        0.05115794        0.01094221
