# Projected DOS for atomic kind N at iteration step i = 0, E(Fermi) =    -0.157593 a.u.
#     MO Eigenvalue [a.u.]      Occupation                 s                py                pz                px               d-2               d-1                d0               d+1               d+2
       1         -1.044846        2.000000        0.03357149        0.01646669        0.01448082        0.00026994        0.00020048        0.00103458        0.00001384        0.00000318        0.00023177
       2         -1.031177        2.000000        0.03633841        0.00078234        0.02827883        0.00330909        0.00013888        0.00004389        0.00068664        0.00062145        0.00000780
       3         -0.844772        2.000000        0.31581197        0.00025518        0.01627947        0.00316446        0.00027888        0.00025267        0.00106425        0.00225295        0.00026519
       4         -0.836607        2.000000        0.31570655        0.01869969        0.00400338        0.00070902        0.00153869        0.00123069        0.00030575        0.00000219        0.00015048
       5         -0.835579        2.000000        0.28780472        0.02050113        0.02267991        0.00009762        0.00167350        0.00028559        0.00006866        0.00065745        0.00000815
       6         -0.828132        2.000000        0.28428545        0.00357208        0.03079494        0.00138139        0.00227927        0.00011956        0.00003126        0.00029634        0.00003230
       7         -0.808144        2.000000        0.01614552        0.00744539        0.00355837        0.01058816        0.00008547        0.00021710        0.00012959        0.00024216        0.00005409
       8         -0.765479        2.000000        0.05033010        0.01556160        0.01102495        0.02259672        0.00030336        0.00053384        0.00028921        0.00087223        0.00044957
       9         -0.758659        2.000000        0.06267835        0.01206324        0.01176195        0.01317541        0.00012283        0.00043611        0.00022794        0.00071480        0.00034797
      10         -0.709040        2.000000        0.02695710        0.01086193        0.01404546        0.01386919        0.00039709        0.00075846        0.00058460        0.00052438        0.00024459
      11         -0.690459        2.000000        0.00535962        0.00269403        0.00559381        0.00135703        0.00009258        0.00037148        0.00014271        0.00019253        0.00008695
      12         -0.676976        2.000000        0.00619067        0.01214783        0.00267124        0.01653423        0.00013924        0.00019528        0.00021482        0.00030175        0.00017492
      13         -0.671906        2.000000        0.00781143        0.00860937        0.00278466        0.01067878        0.00005189        0.00022591        0.00011780        0.00024502        0.00016857
      14         -0.658642        2.000000        0.02096938        0.03350442        0.02662518        0.03756596        0.00038505        0.00167254        0.00081763        0.00210957        0.00099916
      15         -0.633344        2.000000        0.03801879        0.02004254        0.04874999        0.01638097        0.00021387        0.00134402        0.00102517        0.00140295        0.00110376
      16         -0.596276        2.000000        0.02956617        0.02046670        0.04663444        0.00295242        0.00045460        0.00085677        0.00084864        0.00018488        0.00033321
      17         -0.579805        2.000000        0.00770772        0.01382308        0.01466972        0.01152681        0.00020703        0.00035074        0.00017878        0.00010074        0.00002945
      18         -0.559601        2.000000        0.00771290        0.04204672        0.02556968        0.05670166        0.00073118        0.00119109        0.00112643        0.00116510        0.00070256
      19         -0.549741        2.000000        0.02207665        0.03027709        0.06882047        0.01915467        0.00058301        0.00243247        0.00129788        0.00120516        0.00063535
      20         -0.543790        2.000000        0.03397339        0.02680914        0.02199346        0.01093762        0.00017939        0.00053757        0.00053825        0.00007924        0.00005726
      21         -0.532961        2.000000        0.01401423        0.06350878        0.02916286        0.06784316        0.00029378        0.00106859        0.00105805        0.00152294        0.00121524
      22         -0.504827        2.000000        0.00408600        0.03114763        0.11274663        0.02587779        0.00109735        0.00267747        0.00237134        0.00151204        0.00181678
      23         -0.497081        2.000000        0.01462790        0.15858228        0.03734478        0.02608169        0.00072012        0.00244860        0.00101629        0.00100396        0.00104432
      24         -0.482168        2.000000        0.00947659        0.09490528        0.06482559        0.05739788        0.00106543        0.00053064        0.00289003        0.00042655        0.00021451
      25         -0.470582        2.000000        0.01005869        0.08655527        0.03292522        0.13801471        0.00070144        0.00045444        0.00116607        0.00098722        0.00163938
      26         -0.465057        2.000000        0.00640068        0.10649168        0.07664950        0.07171701        0.00139766        0.00348726        0.00146591        0.00169986        0.00134590
      27         -0.462454        2.000000        0.00154536        0.05888621        0.00807085        0.04213068        0.00052434        0.00109907        0.00047548        0.00056449        0.00039700
      28         -0.452312        2.000000        0.01316141        0.05129426        0.04865982        0.01879481        0.00049133        0.00414218        0.00028449        0.00088464        0.00101190
      29         -0.448891        2.000000        0.01364227        0.00599057        0.20404420        0.01267959        0.00064714        0.00096499        0.00447043        0.00036215        0.00003065
      30         -0.438483        2.000000        0.00222346        0.08839108        0.05833462        0.09482570        0.00127031        0.00194479        0.00339490        0.00336958        0.00136852
      31         -0.428202        2.000000        0.00022562        0.02387841        0.02678601        0.02617269        0.00048864        0.00011776        0.00192431        0.00103563        0.00108132
      32         -0.418486        2.000000        0.00012054        0.02681067        0.00943581        0.04554515        0.00042001        0.00097872        0.00105800        0.00148974        0.00021584
      33         -0.405987        2.000000        0.00192293        0.06619464        0.02470737        0.05379900        0.00239082        0.00216554        0.00352329        0.00015740        0.00044034
      34         -0.398057        2.000000        0.00854886        0.05090694        0.01935448        0.07035580        0.00146450        0.00090675        0.00199126        0.00043673        0.00066597
      35         -0.393415        2.000000        0.00363963        0.01532979        0.01372274        0.01831436        0.00073817        0.00060146        0.00093092        0.00046509        0.00023198
      36         -0.386804        2.000000        0.00271003        0.01596575        0.00429350        0.01732825        0.00058219        0.00025060        0.00043066        0.00013699        0.00017177
      37         -0.374432        2.000000        0.01149511        0.02657345        0.03758800        0.02839947        0.00090766        0.00072599        0.00055155        0.00066406        0.00072428
      38         -0.367108        2.000000        0.00531030        0.00313688        0.03327108        0.00382714        0.00143737        0.00075175        0.00269938        0.00045169        0.00034076
      39         -0.359873        2.000000        0.00197366        0.02595328        0.00544761        0.01302889        0.00199244        0.00334805        0.00272363        0.00147163        0.00073727
      40         -0.357785        2.000000        0.00213238        0.01149760        0.01225609        0.01480057        0.00120798        0.00106546        0.00323780        0.00118230        0.00035851
      41         -0.349886        2.000000        0.00179476        0.00596022        0.00361133        0.03676091        0.00096807        0.00133044        0.00027444        0.00008005        0.00044373
      42         -0.345538        2.000000        0.00577619        0.02203518        0.01704799        0.03925769        0.00082991        0.00019614        0.00108509        0.00024387        0.00074508
      43         -0.341611        2.000000        0.00121721        0.01862976        0.00748312        0.03060318        0.00042636        0.00061911        0.00030587        0.00047246        0.00059789
      44         -0.335013        2.000000        0.00159977        0.04741759        0.02986381        0.06670359        0.00055669        0.00111595        0.00081320        0.00088131        0.00218928
      45         -0.332559        2.000000        0.00338736        0.04996935        0.00952411        0.06713753        0.00009110        0.00051906        0.00032972        0.00087344        0.00046423
      46         -0.325605        2.000000        0.00136639        0.05553434        0.01579753        0.04421934        0.00064507        0.00069013        0.00031123        0.00064691        0.00099955
      47         -0.313269        2.000000        0.00414352        0.00662888        0.01496870        0.00648782        0.00054991        0.00113733        0.00150747        0.00058345        0.00037801
      48         -0.307892        2.000000        0.00381783        0.00623048        0.01769276        0.00837025        0.00070167        0.00144872        0.00160617        0.00048520        0.00039197
      49         -0.297482        2.000000        0.00110472        0.04778949        0.01023167        0.01361336        0.00098705        0.00106690        0.00012729        0.00019968        0.00001509
      50         -0.293275        2.000000        0.00090786        0.05912918        0.08062350        0.12194467        0.00034024        0.00019541        0.00208325        0.00054240        0.00013019
      51         -0.290609        2.000000        0.00163009        0.10828343        0.05844500        0.13841575        0.00037990        0.00013919        0.00159654        0.00105040        0.00103636
      52         -0.274421        2.000000        0.00265199        0.06777491        0.03024397        0.12686121        0.00010696        0.00139149        0.00063999        0.00053661        0.00445281
      53         -0.253837        2.000000        0.00329231        0.11749502        0.05825906        0.19995886        0.00005866        0.00108356        0.00029599        0.00048440        0.00325717
      54         -0.250684        2.000000        0.11205804        0.20096983        0.33296570        0.01701591        0.00198302        0.00019372        0.00023363        0.00069048        0.00001720
      55         -0.236792        2.000000        0.10030871        0.07716798        0.48645369        0.00962075        0.00256051        0.00001914        0.00010772        0.00050253        0.00000416
      56         -0.229224        2.000000        0.00124372        0.00729741        0.00277435        0.00668042        0.00002069        0.00000257        0.00001881        0.00002709        0.00000623
      57         -0.220363        2.000000        0.00080487        0.05902271        0.02222441        0.08950887        0.00003390        0.00004430        0.00017923        0.00019385        0.00059908
      58         -0.214838        2.000000        0.00023230        0.02074490        0.01430754        0.02293391        0.00002774        0.00007881        0.00012792        0.00001141        0.00024493
      59         -0.209520        2.000000        0.00201241        0.04491666        0.02222281        0.08706310        0.00009732        0.00005663        0.00013240        0.00009871        0.00028900
      60         -0.176471        2.000000        0.00402599        0.07839333        0.03358012        0.14295941        0.00045346        0.00173664        0.00129931        0.00116375        0.00726152
      61         -0.157593        2.000000        0.00244572        0.07473135        0.04161459        0.13512301        0.00044203        0.00130073        0.00141856        0.00118604        0.00481310
      62         -0.094157        0.000000        0.00049150        0.06406052        0.03909515        0.08943647        0.00029795        0.00091026        0.00109667        0.00111351        0.00213501
      63         -0.043596        0.000000        0.00039261        0.02405406        0.01298148        0.02680079        0.00044103        0.00223836        0.00140553        0.00137081        0.00699656
      64         -0.028371        0.000000        0.00026248        0.00152257        0.00086487        0.00298686        0.00014793        0.00018505        0.00076217        0.00025325        0.00058478
      65         -0.019874        0.000000        0.00037526        0.01228022        0.00531052        0.01454207        0.00035421        0.00111260        0.00056896        0.00082956        0.00415638
      66         -0.006455        0.000000        0.00259677        0.02358693        0.00797850        0.03332757        0.00202756        0.00193573        0.00410829        0.00368425        0.01045717
      67         -0.002666        0.000000        0.00562972        0.00513024        0.00131476        0.00258732        0.00089833        0.00006804        0.00043840        0.00054716        0.00108071
      68         -0.001488        0.000000        0.00097901        0.03832026        0.02824625        0.05998051        0.00197092        0.00336009        0.00785396        0.00380817        0.00377315
      69          0.035651        0.000000        0.01088892        0.04649488        0.01605539        0.04537922        0.00613978        0.00264780        0.00066871        0.00120661        0.00678680
      70          0.046374        0.000000        0.15508549        0.01326993        0.02621019        0.02888603        0.01031403        0.00077635        0.00238641        0.00309077        0.00982029
      71          0.052435        0.000000        0.17614461        0.01918642        0.01474617        0.04049033        0.01012970        0.00046167        0.00109124        0.00362916        0.00165111
      72          0.053215        0.000000        0.02901296        0.00723801        0.01831063        0.02044016        0.00300570        0.00160538        0.00520739        0.00202498        0.00216578
      73          0.066347        0.000000        0.00481930        0.03494869        0.01731323        0.03059855        0.00082460        0.00266693        0.00147367        0.00293642        0.00750475
      74          0.090562        0.000000        0.00725012        0.01101244        0.03228894        0.00350135        0.00315188        0.00167024        0.00462922        0.00237042        0.00017963
      75          0.094506        0.000000        0.02325562        0.02644621        0.02260457        0.00933640        0.00406968        0.00784863        0.00679487        0.00386142        0.00170731
      76          0.095678        0.000000        0.01108973        0.02068214        0.00531532        0.00716599        0.00199329        0.00351929        0.00154248        0.00110625        0.00087393
      77          0.100880        0.000000        0.01174782        0.04918761        0.03327881        0.01970949        0.00625079        0.00812608        0.01315323        0.00036660        0.00133620
      78          0.112773        0.000000        0.00413082        0.01555480        0.04126983        0.03372820        0.00424075        0.00096678        0.01478101        0.00057250        0.00173738
      79          0.114845        0.000000        0.02442035        0.01302186        0.00875933        0.00420101        0.00210508        0.00034580        0.00258147        0.00260410        0.00171772
      80          0.120956        0.000000        0.01528234        0.00814205        0.01378794        0.01203311        0.00212242        0.00234809        0.00519799        0.00095616        0.00182003
      81          0.124029        0.000000        0.02281495        0.00684127        0.00685073        0.00667231        0.00119844        0.00290936        0.00370619        0.00168164        0.00129809
      82          0.128054        0.000000        0.00967077        0.01655353        0.00526172        0.02190512        0.00213524        0.00023158        0.00144446        0.00482977        0.00881511
      83          0.135696        0.000000        0.08847903        0.01496193        0.01403918        0.00512699        0.00253926        0.00175307        0.00200751        0.00342066        0.00169847
      84          0.151018        0.000000        0.01622999        0.06111243        0.00724938        0.01003220        0.00352006        0.00679705        0.00599105        0.00119007        0.00095675
      85          0.158804        0.000000        0.01165804        0.01770886        0.02150186        0.02428136        0.00166958        0.00280510        0.02027429        0.00055115        0.00502927
      86          0.169433        0.000000        0.00731058        0.01385484        0.00662385        0.01150353        0.00218726        0.00583695        0.00958104        0.00533335        0.00349726
      87          0.176838        0.000000        0.02489099        0.02226045        0.00626126        0.01667029        0.00816866        0.00547905        0.00780047        0.00131246        0.00105038
      88          0.183243        0.000000        0.02653691        0.01932167        0.01647302        0.03646510        0.00304821        0.00262428        0.00255078        0.01177950        0.00317350
      89          0.187516        0.000000        0.00472051        0.01461342        0.02559982        0.00354120        0.00549418        0.01000181        0.00452850        0.00487637        0.00245593
      90          0.191658        0.000000        0.00783696        0.02553632        0.01967232        0.01281657        0.00228742        0.00815444        0.00205691        0.00770079        0.00303810
      91          0.192967        0.000000        0.00450568        0.01649096        0.02480791        0.01365851        0.00353796        0.00219344        0.00242591        0.00513596        0.00066620
      92          0.197206        0.000000        0.01096897        0.01167921        0.03726459        0.01040055        0.00418300        0.00086069        0.00177763        0.00091760        0.00083645
      93          0.198194        0.000000        0.01329696        0.00875318        0.03190837        0.02760230        0.00681880        0.00582917        0.00125285        0.00443887        0.00280994
      94          0.216396        0.000000        0.01321343        0.01958058        0.03221379        0.00861134        0.00072582        0.01984477        0.00310106        0.00603799        0.00409807
      95          0.218552        0.000000        0.04076609        0.01314796        0.02870021        0.01077090        0.00015098        0.00718291        0.00145891        0.00201169        0.00380903
      96          0.224160        0.000000        0.01316205        0.04082477        0.02101171        0.00754124        0.00110330        0.00302226        0.00968481        0.00424141        0.00127352
      97          0.227749        0.000000        0.03401269        0.01865145        0.01901137        0.01786986        0.00093796        0.00377578        0.00639129        0.00501244        0.00231430
      98          0.239544        0.000000        0.00557457        0.01756078        0.01554360        0.01424299        0.00867982        0.00389133        0.01079460        0.00740006        0.00448558
      99          0.249179        0.000000        0.00228176        0.00654760        0.00775569        0.02579165        0.00808445        0.00284375        0.00365735        0.00681527        0.00188701
     100          0.253792        0.000000        0.00055166        0.01482149        0.01339346        0.02350414        0.00180965        0.00171278        0.00409449        0.00483202        0.00244184
     101          0.255918        0.000000        0.00170032        0.02951778        0.02257273        0.05318263        0.00052777        0.00146297        0.00245379        0.00096458        0.00119718
     102          0.267847        0.000000        0.00490551        0.03401475        0.03791589        0.05345597        0.00361729        0.00611657        0.01605096        0.01160314        0.01286847
     103          0.272901        0.000000        0.00395776        0.02859314        0.04981300        0.07256285        0.00092094        0.00311974        0.00257809        0.00195852        0.00115714
     104          0.276472        0.000000        0.00363914        0.05167903        0.03152795        0.02912417        0.00343427        0.00670439        0.01519959        0.00767668        0.01367223
     105          0.283735        0.000000        0.00397894        0.04732936        0.04853613        0.02877168        0.00527569        0.02047189        0.00924978        0.00930535        0.01176310
     106          0.286463        0.000000        0.01115455        0.04442089        0.08492055        0.03946945        0.00107748        0.01394733        0.00842238        0.00271109        0.00497710
     107          0.297786        0.000000        0.00594658        0.03482886        0.07757357        0.07241816        0.00105293        0.00482788        0.00832389        0.00328723        0.00032259
     108          0.304426        0.000000        0.00471623        0.02732035        0.06099745        0.03446656        0.00072163        0.00571296        0.00948441        0.00203535        0.00355913
     109          0.311015        0.000000        0.04337990        0.04346283        0.05894940        0.01270925        0.01112632        0.00288756        0.00310890        0.00377274        0.00131243
     110          0.316410        0.000000        0.01407735        0.01491232        0.04011345        0.00990103        0.00224926        0.01304669        0.00210843        0.00579645        0.00815343
     111          0.320076        0.000000        0.04388810        0.01660604        0.15090269        0.01409885        0.01049101        0.00808645        0.00860400        0.00394358        0.00189942
