# Projected DOS for atomic kind S at iteration step i = 0, E(Fermi) =    -0.156628 a.u.
#     MO Eigenvalue [a.u.]      Occupation                 s                py                pz                px               d-2               d-1                d0               d+1               d+2
       1         -1.041896        2.000000        0.00233459        0.00353767        0.00003789        0.00356305        0.00023367        0.00002904        0.00004734        0.00000060        0.00000516
       2         -1.030059        2.000000        0.00114820        0.00083773        0.00053945        0.00230334        0.00002582        0.00000695        0.00000005        0.00008107        0.00002172
       3         -0.849503        2.000000        0.00004679        0.00001091        0.00001234        0.00000032        0.00000322        0.00000072        0.00000028        0.00000016        0.00000007
       4         -0.838881        2.000000        0.00001468        0.00000145        0.00000185        0.00000373        0.00000013        0.00000001        0.00000009        0.00000000        0.00000000
       5         -0.831801        2.000000        0.00593692        0.00102619        0.00194560        0.00004483        0.00004162        0.00009337        0.00000165        0.00000398        0.00002141
       6         -0.830559        2.000000        0.00135045        0.00003972        0.00049732        0.00049427        0.00000860        0.00000129        0.00000416        0.00007529        0.00001182
       7         -0.807128        2.000000        0.15143030        0.01077068        0.02553278        0.00149861        0.00132767        0.00160334        0.00006566        0.00104652        0.00006361
       8         -0.763525        2.000000        0.00154735        0.00280214        0.00118848        0.00632773        0.00005580        0.00008162        0.00013241        0.00057804        0.00018678
       9         -0.755978        2.000000        0.00792966        0.00123821        0.00097596        0.00004055        0.00000144        0.00028932        0.00005718        0.00000345        0.00005571
      10         -0.708319        2.000000        0.00001711        0.02000526        0.00244542        0.03069191        0.00046933        0.00119761        0.00058904        0.00312822        0.00155781
      11         -0.687573        2.000000        0.02696424        0.00220262        0.00178353        0.00006745        0.00089652        0.00057720        0.00046320        0.00006747        0.00018412
      12         -0.675556        2.000000        0.00034552        0.00119236        0.00008350        0.00143958        0.00002330        0.00013764        0.00004301        0.00033259        0.00017162
      13         -0.670603        2.000000        0.05929196        0.00125207        0.00168720        0.00008826        0.00038239        0.00019751        0.00017263        0.00001855        0.00004356
      14         -0.658369        2.000000        0.11653416        0.00094274        0.00301212        0.00029457        0.00000293        0.00006820        0.00002349        0.00000077        0.00002485
      15         -0.632622        2.000000        0.00007197        0.00671584        0.00044253        0.00835749        0.00017121        0.00082930        0.00025279        0.00182308        0.00104623
      16         -0.595345        2.000000        0.04161998        0.00042581        0.00157995        0.00013807        0.00080586        0.00029306        0.00037215        0.00004399        0.00012991
      17         -0.579332        2.000000        0.00151259        0.00041669        0.00022835        0.00128671        0.00006408        0.00001051        0.00006294        0.00008888        0.00004937
      18         -0.559693        2.000000        0.00093434        0.00028939        0.00068392        0.00000013        0.00000004        0.00000690        0.00000073        0.00000029        0.00000004
      19         -0.547934        2.000000        0.00005554        0.00104709        0.00002850        0.00113371        0.00000735        0.00017044        0.00002118        0.00032803        0.00022611
      20         -0.542528        2.000000        0.00489184        0.00032852        0.00117374        0.00013142        0.00010331        0.00000130        0.00004279        0.00000961        0.00000852
      21         -0.534463        2.000000        0.00024226        0.00031468        0.00006331        0.00018024        0.00000126        0.00000002        0.00000024        0.00000022        0.00000552
      22         -0.505728        2.000000        0.02275000        0.00173226        0.00810025        0.00133542        0.00002454        0.00007887        0.00003142        0.00009685        0.00000141
      23         -0.495676        2.000000        0.00015355        0.01687380        0.00249965        0.02539688        0.00026313        0.00049057        0.00030021        0.00109135        0.00053281
      24         -0.484124        2.000000        0.00151781        0.01196649        0.00180481        0.00341434        0.00015028        0.00123030        0.00008051        0.00052333        0.00063840
      25         -0.472733        2.000000        0.00608927        0.00164734        0.00521152        0.00043192        0.00008480        0.00012510        0.00024618        0.00021868        0.00000254
      26         -0.465516        2.000000        0.05865556        0.01782990        0.03073585        0.00162103        0.00002832        0.00254190        0.00063524        0.00030290        0.00022330
      27         -0.463489        2.000000        0.00144555        0.01804182        0.00588619        0.03212567        0.00024273        0.00087158        0.00058232        0.00299165        0.00148015
      28         -0.451854        2.000000        0.00046121        0.00032311        0.00029927        0.00023978        0.00000031        0.00008427        0.00000448        0.00024910        0.00012435
      29         -0.446186        2.000000        0.00050526        0.00110832        0.00006213        0.00050178        0.00012312        0.00000011        0.00008743        0.00000625        0.00000185
      30         -0.440228        2.000000        0.00176178        0.00079445        0.00034703        0.00005420        0.00085820        0.00042282        0.00044991        0.00002862        0.00013272
      31         -0.425947        2.000000        0.00009105        0.00288340        0.00342762        0.00342003        0.00004612        0.00003489        0.00016154        0.00011548        0.00045806
      32         -0.417910        2.000000        0.00046971        0.00104472        0.00166764        0.00064882        0.00010426        0.00007094        0.00014313        0.00000734        0.00021502
      33         -0.408790        2.000000        0.00096932        0.01062019        0.00211388        0.01527460        0.00013675        0.00107525        0.00052781        0.00349309        0.00157781
      34         -0.398571        2.000000        0.00139343        0.00547350        0.00050411        0.00204508        0.00003795        0.00052134        0.00004473        0.00007581        0.00021430
      35         -0.392537        2.000000        0.00013462        0.00172117        0.00025173        0.00352993        0.00000289        0.00002489        0.00000006        0.00006953        0.00008726
      36         -0.386944        2.000000        0.00028886        0.00371932        0.00009553        0.00183192        0.00011723        0.00002083        0.00011716        0.00009187        0.00009111
      37         -0.374340        2.000000        0.00014204        0.02391284        0.00640283        0.02964003        0.00002384        0.00060218        0.00030743        0.00093296        0.00088363
      38         -0.363688        2.000000        0.00380367        0.00314624        0.01444730        0.00007360        0.00059020        0.00000292        0.00009744        0.00005061        0.00006044
      39         -0.360016        2.000000        0.00238974        0.00242607        0.00986827        0.00940299        0.00047550        0.00046735        0.00060720        0.00035774        0.00088861
      40         -0.354206        2.000000        0.01079900        0.00906206        0.01440470        0.00617259        0.00290282        0.00004206        0.00041610        0.00034889        0.00005416
      41         -0.349900        2.000000        0.00067798        0.00101999        0.01028402        0.01755455        0.00006764        0.00018135        0.00123424        0.00065945        0.00006099
      42         -0.345981        2.000000        0.00283002        0.01036716        0.00023254        0.03346845        0.00000835        0.00003308        0.00077178        0.00123265        0.00008298
      43         -0.344310        2.000000        0.00002480        0.03706829        0.01688172        0.00087977        0.00029773        0.00006312        0.00046778        0.00013270        0.00010905
      44         -0.335877        2.000000        0.00018939        0.02965495        0.00239032        0.00119980        0.00015402        0.00056824        0.00039517        0.00010396        0.00001014
      45         -0.333907        2.000000        0.00016132        0.01111524        0.00496603        0.07834880        0.00030214        0.00022620        0.00042808        0.00122279        0.00051792
      46         -0.326173        2.000000        0.00001796        0.04368432        0.01881408        0.00353787        0.00027743        0.00032947        0.00125067        0.00003572        0.00030850
      47         -0.312637        2.000000        0.02802457        0.06192464        0.15068434        0.01725907        0.00066540        0.00017328        0.00005436        0.00027010        0.00012707
      48         -0.306717        2.000000        0.00674543        0.01364228        0.03583343        0.00201070        0.00056842        0.00053532        0.00003744        0.00031683        0.00016887
      49         -0.296375        2.000000        0.03299468        0.03728789        0.11759462        0.02590456        0.00172314        0.00000093        0.00008454        0.00205951        0.00057254
      50         -0.292956        2.000000        0.00050064        0.00112284        0.00142340        0.00028680        0.00001202        0.00014747        0.00000142        0.00023426        0.00014499
      51         -0.290429        2.000000        0.00274047        0.00011005        0.02226282        0.00138288        0.00019383        0.00001211        0.00000197        0.00018285        0.00000048
      52         -0.275040        2.000000        0.00001318        0.00005846        0.00001528        0.00046221        0.00002669        0.00109178        0.00008743        0.00035444        0.00398731
      53         -0.253567        2.000000        0.00002821        0.00797896        0.00960004        0.00717778        0.00003736        0.00000190        0.00010142        0.00002498        0.00000645
      54         -0.248839        2.000000        0.00012955        0.00017087        0.00016017        0.00064338        0.00000135        0.00001086        0.00000117        0.00004033        0.00003114
      55         -0.237636        2.000000        0.00007473        0.00055880        0.00065083        0.00211552        0.00002166        0.00000107        0.00000891        0.00001235        0.00003512
      56         -0.227017        2.000000        0.00000940        0.12803101        0.10635688        0.17348709        0.00009137        0.00000060        0.00009490        0.00009040        0.00009109
      57         -0.218961        2.000000        0.00004687        0.00209938        0.00159443        0.00253416        0.00006107        0.00105607        0.00005413        0.00038952        0.00338763
      58         -0.213269        2.000000        0.00000887        0.01568202        0.01281389        0.01887734        0.00000119        0.00012928        0.00001976        0.00005561        0.00025735
      59         -0.209172        2.000000        0.00000839        0.00098456        0.00058657        0.00148566        0.00000745        0.00127242        0.00005396        0.00047674        0.00326661
      60         -0.175659        2.000000        0.00002846        0.01046920        0.01009218        0.00916083        0.00005178        0.00000243        0.00012532        0.00004582        0.00004612
      61         -0.156628        2.000000        0.00000780        0.00008092        0.00000998        0.00059576        0.00001175        0.00115378        0.00006240        0.00036258        0.00293686
      62         -0.093261        0.000000        0.00000830        0.04281863        0.03417188        0.03865547        0.00175870        0.00074494        0.00786365        0.00162240        0.00017650
      63         -0.044460        0.000000        0.00030990        0.00005509        0.00056497        0.00181192        0.00004351        0.00003437        0.00000020        0.00070619        0.00002037
      64         -0.028113        0.000000        0.00002230        0.00466537        0.00176428        0.00055720        0.00015353        0.00088152        0.00277478        0.00000259        0.00022755
      65         -0.020706        0.000000        0.00010856        0.00002034        0.00018089        0.00246170        0.00003933        0.00011374        0.00007490        0.00111386        0.00000091
      66         -0.005371        0.000000        0.00001021        0.00514683        0.00061636        0.04271113        0.00263193        0.00353741        0.00031812        0.01533077        0.00933521
      67         -0.002994        0.000000        0.00062200        0.12726094        0.00579281        0.12587379        0.00652564        0.05169921        0.01177138        0.07570802        0.04336793
      68         -0.000282        0.000000        0.00050050        0.00895479        0.00015140        0.00140426        0.00039234        0.00051861        0.00078398        0.00023924        0.00857433
      69          0.036530        0.000000        0.02628363        0.03024916        0.00341211        0.01980624        0.00264514        0.01026241        0.02075426        0.01161108        0.00003001
      70          0.048626        0.000000        0.00013958        0.00036591        0.00236341        0.00009451        0.00134323        0.00015116        0.00099561        0.00006331        0.00021295
      71          0.048740        0.000000        0.00146805        0.00033212        0.00052021        0.00176201        0.00003919        0.00000047        0.00018947        0.00220710        0.00001436
      72          0.053047        0.000000        0.07042001        0.00458665        0.08661433        0.00065990        0.04313700        0.00223552        0.00916104        0.00933617        0.00006191
      73          0.064926        0.000000        0.00011734        0.00107004        0.00163952        0.00060237        0.00248357        0.00857981        0.00000131        0.00497155        0.03548637
      74          0.090866        0.000000        0.00002401        0.00806826        0.00026016        0.00959981        0.00018057        0.00002385        0.00004174        0.00000350        0.00071557
      75          0.097293        0.000000        0.00143584        0.00327747        0.00937871        0.00048979        0.00221800        0.00322445        0.00046641        0.00229825        0.00049532
      76          0.099391        0.000000        0.00254335        0.00139925        0.00198519        0.00040377        0.00060130        0.00139857        0.00009608        0.00045504        0.00000124
      77          0.100335        0.000000        0.00161881        0.00034725        0.00458459        0.00283431        0.00009161        0.00061803        0.00086760        0.00369246        0.00010668
      78          0.110883        0.000000        0.00104316        0.00918461        0.00526174        0.00915192        0.00004029        0.00319014        0.00099252        0.00300650        0.00033904
      79          0.119850        0.000000        0.00075569        0.00528326        0.01502982        0.00346082        0.00535532        0.02044367        0.00977376        0.00608481        0.00035129
      80          0.121973        0.000000        0.00292960        0.00020372        0.00471858        0.00100785        0.02182824        0.00039922        0.00409543        0.00366975        0.00004038
      81          0.125889        0.000000        0.00027228        0.00080541        0.00089519        0.00193316        0.00001069        0.00179116        0.00033361        0.00053296        0.00002122
      82          0.127010        0.000000        0.00104497        0.00181737        0.00659137        0.00390394        0.00808374        0.00086414        0.00010951        0.00566278        0.00030919
      83          0.139497        0.000000        0.00057239        0.00080860        0.00107376        0.00067342        0.00240461        0.00305948        0.00009288        0.00286804        0.00353345
      84          0.150629        0.000000        0.00143829        0.00130299        0.00146855        0.00005559        0.00066897        0.00035641        0.00001504        0.00123161        0.00000121
      85          0.157644        0.000000        0.00119645        0.00053453        0.00318926        0.00044613        0.00081441        0.00166126        0.00037236        0.00122287        0.00003869
      86          0.168286        0.000000        0.00452483        0.00077884        0.00062481        0.00105398        0.00000089        0.00010593        0.00000550        0.00005631        0.00012548
      87          0.180149        0.000000        0.01394209        0.00053128        0.00089764        0.00027338        0.01571398        0.00448027        0.00007875        0.00540780        0.00005524
      88          0.184385        0.000000        0.00052055        0.00410227        0.00657186        0.00048806        0.01757048        0.00582186        0.00024163        0.01156689        0.00001029
      89          0.188025        0.000000        0.00635023        0.00296919        0.01531811        0.00251940        0.00285264        0.00506863        0.00423597        0.00042377        0.00095906
      90          0.192066        0.000000        0.00451586        0.00148107        0.00768750        0.00407948        0.01473498        0.00222705        0.00950076        0.00257552        0.00003981
      91          0.194342        0.000000        0.00034261        0.00220110        0.01338856        0.00250102        0.00567627        0.01303017        0.01463550        0.00724021        0.00011550
      92          0.197230        0.000000        0.02159474        0.00019935        0.00233830        0.00159896        0.00502445        0.00182773        0.00117384        0.00131531        0.00230949
      93          0.203472        0.000000        0.04131757        0.01078341        0.01679725        0.00106377        0.01006820        0.01483587        0.00861811        0.00030873        0.00321251
      94          0.215871        0.000000        0.00094757        0.00249423        0.00910634        0.00002362        0.00192407        0.00117719        0.00215226        0.00069408        0.00045144
      95          0.218269        0.000000        0.00290255        0.00204054        0.00731990        0.00026877        0.00074303        0.00961265        0.00578285        0.00000112        0.00142701
      96          0.226757        0.000000        0.00774879        0.00194347        0.00548938        0.00139067        0.00122322        0.00663607        0.00506374        0.00303376        0.00041264
      97          0.229095        0.000000        0.00235979        0.01287072        0.01604154        0.00650711        0.01245516        0.01397077        0.01070112        0.00392938        0.00108477
      98          0.237840        0.000000        0.02611501        0.00635539        0.02815743        0.00116600        0.00339714        0.01513287        0.00769439        0.00129797        0.00518171
      99          0.248473        0.000000        0.01276241        0.01021026        0.00310700        0.00616917        0.02771328        0.00020931        0.00731049        0.00980211        0.00277649
     100          0.256630        0.000000        0.00283420        0.02022896        0.02339279        0.00199496        0.00011630        0.00037142        0.00006732        0.00067219        0.00011833
     101          0.257973        0.000000        0.00006539        0.05233084        0.04975701        0.05004787        0.00033077        0.00165134        0.00974811        0.00035262        0.00061657
     102          0.268191        0.000000        0.00001879        0.00590236        0.00055646        0.00346588        0.00042890        0.00120530        0.00080509        0.00009652        0.00043876
     103          0.272890        0.000000        0.00002714        0.00059610        0.00366093        0.00044555        0.00006288        0.00473616        0.00009819        0.00039158        0.00000131
     104          0.278969        0.000000        0.00025483        0.00725703        0.00023973        0.00725485        0.00058463        0.00043817        0.00018962        0.00036881        0.00080501
     105          0.285523        0.000000        0.00047253        0.00135028        0.00453474        0.01853322        0.00000483        0.00157621        0.00115663        0.00000000        0.00018487
     106          0.286181        0.000000        0.00613752        0.01038890        0.01927097        0.00004067        0.00000804        0.00000253        0.00246186        0.00026454        0.00024190
     107          0.298667        0.000000        0.00038640        0.04008510        0.03244327        0.04553506        0.00351378        0.00383265        0.00826417        0.00247275        0.00025465
     108          0.305992        0.000000        0.00286586        0.04715960        0.00100321        0.00006998        0.00039311        0.00103718        0.00185634        0.00081344        0.00014296
     109          0.313165        0.000000        0.00052079        0.03244968        0.00799576        0.00167904        0.00012353        0.01997348        0.01723142        0.02926173        0.00026849
     110          0.316717        0.000000        0.00007622        0.00495080        0.00641445        0.00734678        0.00653583        0.00340269        0.00257408        0.00009408        0.00889845
     111          0.323042        0.000000        0.00053971        0.00012003        0.00196584        0.00136742        0.00067986        0.01532673        0.00562365        0.00766532        0.00733264
