# Projected DOS for atomic kind S at iteration step i = 0, E(Fermi) =    -0.161576 a.u.
#     MO Eigenvalue [a.u.]      Occupation                 s                py                pz                px               d-2               d-1                d0               d+1               d+2
       1         -1.017702        2.000000        0.00246373        0.00315664        0.00005013        0.00309967        0.00021621        0.00002882        0.00003445        0.00000140        0.00000324
       2         -1.016578        2.000000        0.00098369        0.00093575        0.00052834        0.00250491        0.00001591        0.00000725        0.00000022        0.00007820        0.00002368
       3         -0.855781        2.000000        0.00003074        0.00000741        0.00000980        0.00000015        0.00000204        0.00000055        0.00000013        0.00000015        0.00000003
       4         -0.853136        2.000000        0.00000864        0.00000149        0.00000302        0.00000026        0.00000026        0.00000001        0.00000000        0.00000037        0.00000005
       5         -0.847332        2.000000        0.00230990        0.00001438        0.00098997        0.00042482        0.00001359        0.00000331        0.00000523        0.00005301        0.00000278
       6         -0.836232        2.000000        0.00250704        0.00069288        0.00096619        0.00000280        0.00001153        0.00007801        0.00000114        0.00000171        0.00002139
       7         -0.814513        2.000000        0.15627955        0.01070888        0.02926080        0.00226161        0.00117543        0.00194938        0.00015286        0.00121903        0.00002847
       8         -0.763697        2.000000        0.00120996        0.00178361        0.00079842        0.00431699        0.00005544        0.00003827        0.00010769        0.00041759        0.00012950
       9         -0.755914        2.000000        0.00387849        0.00172588        0.00033792        0.00062074        0.00000002        0.00029378        0.00002011        0.00002482        0.00009166
      10         -0.707241        2.000000        0.00089996        0.02253138        0.00210809        0.03475635        0.00063881        0.00159004        0.00059679        0.00380157        0.00197394
      11         -0.680703        2.000000        0.05869868        0.00301613        0.00282070        0.00015294        0.00106933        0.00066483        0.00052621        0.00009766        0.00023071
      12         -0.673004        2.000000        0.00000116        0.00004900        0.00000506        0.00001124        0.00000143        0.00004157        0.00000035        0.00003056        0.00002557
      13         -0.669288        2.000000        0.02242449        0.00043177        0.00078474        0.00004871        0.00029320        0.00010112        0.00017422        0.00000387        0.00000927
      14         -0.660694        2.000000        0.12220672        0.00122317        0.00343830        0.00028395        0.00000181        0.00005078        0.00000847        0.00000058        0.00001237
      15         -0.637946        2.000000        0.00044709        0.00553596        0.00024205        0.00742976        0.00019814        0.00074213        0.00020970        0.00176084        0.00096863
      16         -0.594174        2.000000        0.03584200        0.00062811        0.00153720        0.00021557        0.00103966        0.00023093        0.00059769        0.00000004        0.00003529
      17         -0.575119        2.000000        0.00043337        0.00177874        0.00006602        0.00233994        0.00000005        0.00001399        0.00000112        0.00005374        0.00003659
      18         -0.557545        2.000000        0.00000928        0.00006051        0.00044958        0.00041000        0.00002486        0.00000982        0.00001045        0.00000110        0.00000145
      19         -0.548943        2.000000        0.00007774        0.00159842        0.00004689        0.00180653        0.00004630        0.00014967        0.00003901        0.00043570        0.00026444
      20         -0.539677        2.000000        0.00640680        0.00011161        0.00105567        0.00038774        0.00018301        0.00002712        0.00007394        0.00001540        0.00001287
      21         -0.536184        2.000000        0.00024575        0.00195111        0.00000430        0.00153051        0.00000051        0.00006414        0.00000172        0.00005024        0.00002309
      22         -0.503786        2.000000        0.02119363        0.00160362        0.00877484        0.00153926        0.00001487        0.00011069        0.00003272        0.00005567        0.00000396
      23         -0.494435        2.000000        0.00078854        0.02749293        0.00016357        0.02883177        0.00003857        0.00150081        0.00005086        0.00168156        0.00112656
      24         -0.485194        2.000000        0.00085809        0.00015664        0.00297412        0.00125010        0.00042579        0.00020332        0.00031625        0.00000008        0.00003552
      25         -0.475794        2.000000        0.00027738        0.00057240        0.00087555        0.00116272        0.00004544        0.00003919        0.00012466        0.00020262        0.00002923
      26         -0.468709        2.000000        0.06274055        0.00846949        0.03480210        0.00537850        0.00005351        0.00145596        0.00097128        0.00096666        0.00000881
      27         -0.467817        2.000000        0.00073828        0.02492057        0.00006808        0.02400516        0.00012375        0.00198781        0.00012636        0.00256845        0.00168040
      28         -0.448127        2.000000        0.00090002        0.00025973        0.00286152        0.00078512        0.00096566        0.00039669        0.00091410        0.00009509        0.00001321
      29         -0.444026        2.000000        0.00147728        0.00003576        0.00311186        0.00226890        0.00000014        0.00000001        0.00002167        0.00010308        0.00001145
      30         -0.441292        2.000000        0.00005403        0.00034233        0.00035668        0.00054619        0.00009225        0.00005398        0.00013340        0.00000004        0.00001635
      31         -0.415768        2.000000        0.00067786        0.00601440        0.00597385        0.00367639        0.00023543        0.00005389        0.00039237        0.00000181        0.00014291
      32         -0.412858        2.000000        0.00009335        0.00022187        0.00009494        0.00024444        0.00002525        0.00008485        0.00000140        0.00005545        0.00066123
      33         -0.407270        2.000000        0.00074511        0.01056999        0.00049608        0.01920633        0.00012351        0.00154454        0.00021862        0.00416087        0.00167908
      34         -0.399886        2.000000        0.00330444        0.00333310        0.00018389        0.00066218        0.00005133        0.00025244        0.00000004        0.00003477        0.00002140
      35         -0.393425        2.000000        0.00013389        0.00058247        0.00031121        0.00377263        0.00000475        0.00003392        0.00003209        0.00007225        0.00008507
      36         -0.383855        2.000000        0.00059655        0.00209699        0.00133032        0.00150409        0.00013560        0.00003539        0.00002089        0.00010213        0.00004735
      37         -0.378396        2.000000        0.00008071        0.01735284        0.00206928        0.03920862        0.00010365        0.00051249        0.00004812        0.00127924        0.00085632
      38         -0.365708        2.000000        0.00111085        0.00013444        0.00668050        0.00054287        0.00023617        0.00000581        0.00003894        0.00015212        0.00015663
      39         -0.360532        2.000000        0.00016942        0.00008636        0.00607942        0.00759376        0.00000701        0.00010698        0.00084113        0.00006539        0.00018254
      40         -0.354216        2.000000        0.01090135        0.00632250        0.05890121        0.01036098        0.00421078        0.00026515        0.00023883        0.00012895        0.00014865
      41         -0.350851        2.000000        0.00184428        0.00760231        0.00020870        0.08122206        0.00000938        0.00095168        0.00082543        0.00321318        0.00075560
      42         -0.348400        2.000000        0.01223322        0.09704885        0.00801471        0.00217658        0.00032687        0.00065150        0.00136373        0.00000200        0.00052263
      43         -0.342408        2.000000        0.00051478        0.00098524        0.00012055        0.00605543        0.00008969        0.00012002        0.00004747        0.00018141        0.00003746
      44         -0.338803        2.000000        0.00026156        0.00231454        0.00004642        0.02760580        0.00029534        0.00002846        0.00009801        0.00003481        0.00008186
      45         -0.335717        2.000000        0.00239998        0.03612090        0.00529846        0.00452789        0.00000637        0.00020465        0.00165192        0.00021163        0.00002852
      46         -0.327896        2.000000        0.00092868        0.03792728        0.00318041        0.00353715        0.00009478        0.00021963        0.00082084        0.00016438        0.00029753
      47         -0.310428        2.000000        0.03417199        0.04067245        0.22382464        0.01851068        0.00096933        0.00034460        0.00000218        0.00013107        0.00000078
      48         -0.301649        2.000000        0.00087672        0.00268602        0.00238832        0.00125946        0.00023574        0.00044115        0.00005692        0.00058021        0.00014534
      49         -0.296535        2.000000        0.00232016        0.00002577        0.01346494        0.00042330        0.00017640        0.00001383        0.00000317        0.00006452        0.00050584
      50         -0.295845        2.000000        0.02758892        0.02077312        0.10706731        0.01309528        0.00163864        0.00000394        0.00003775        0.00150106        0.00034050
      51         -0.292707        2.000000        0.00000271        0.00229927        0.00221423        0.00237765        0.00000006        0.00000281        0.00000081        0.00000428        0.00003045
      52         -0.277163        2.000000        0.00007519        0.00013942        0.00083481        0.00006616        0.00003525        0.00090739        0.00010266        0.00054099        0.00395141
      53         -0.258154        2.000000        0.00005002        0.00722037        0.01106088        0.00534092        0.00005021        0.00001177        0.00011495        0.00001071        0.00001525
      54         -0.241702        2.000000        0.00011676        0.00051541        0.00024947        0.00228691        0.00004254        0.00000402        0.00002550        0.00002424        0.00000056
      55         -0.238942        2.000000        0.00014327        0.00004245        0.00027166        0.00080207        0.00000149        0.00000124        0.00001058        0.00001461        0.00032974
      56         -0.224884        2.000000        0.00009652        0.15514252        0.08939922        0.17426015        0.00022278        0.00018277        0.00018985        0.00001034        0.00012545
      57         -0.220934        2.000000        0.00000249        0.00703672        0.00552898        0.00638454        0.00001242        0.00175462        0.00008482        0.00115484        0.00716444
      58         -0.209796        2.000000        0.00001809        0.00677805        0.00447929        0.00664416        0.00001136        0.00006217        0.00001254        0.00004431        0.00012330
      59         -0.206382        2.000000        0.00000299        0.00739659        0.00422066        0.00809096        0.00000085        0.00016548        0.00000363        0.00010348        0.00061938
      60         -0.177216        2.000000        0.00003405        0.00792865        0.00823102        0.00597333        0.00003194        0.00000423        0.00007335        0.00001576        0.00001871
      61         -0.161576        2.000000        0.00001987        0.00000526        0.00006261        0.00050179        0.00000487        0.00072644        0.00004818        0.00035528        0.00267449
      62         -0.088439        0.000000        0.00004204        0.04226196        0.03588401        0.03115303        0.00165475        0.00083819        0.00812939        0.00120406        0.00044468
      63         -0.046532        0.000000        0.00067383        0.00014113        0.00060589        0.00465736        0.00000104        0.00027285        0.00000185        0.00169676        0.00000044
      64         -0.027771        0.000000        0.00000928        0.00640126        0.00290699        0.00002060        0.00012604        0.00155622        0.00316808        0.00020148        0.00051518
      65         -0.021029        0.000000        0.00005072        0.00035115        0.00012626        0.00627935        0.00027192        0.00054627        0.00010671        0.00269966        0.00008482
      66         -0.003386        0.000000        0.00040118        0.11304080        0.00382787        0.12668643        0.00582579        0.05369036        0.00810218        0.07996664        0.03468361
      67         -0.002915        0.000000        0.00001525        0.00009412        0.00353039        0.03147562        0.00215315        0.00108846        0.00285869        0.01005313        0.00301514
      68          0.004102        0.000000        0.00075363        0.02177188        0.00015464        0.01536729        0.00146032        0.00412629        0.00072771        0.00545461        0.02202563
      69          0.040232        0.000000        0.01571885        0.02205558        0.00124403        0.01869296        0.00186440        0.00701647        0.02026401        0.01092446        0.00011660
      70          0.046754        0.000000        0.00110888        0.00095915        0.00003829        0.00310475        0.00003124        0.00000908        0.00117942        0.00313269        0.00031808
      71          0.049886        0.000000        0.02443408        0.00478452        0.01667638        0.00106333        0.00832451        0.00575341        0.00002259        0.00164997        0.00120603
      72          0.051621        0.000000        0.04711803        0.00130580        0.06541732        0.00019116        0.03134576        0.00233664        0.00873914        0.00389104        0.00178614
      73          0.065353        0.000000        0.00203334        0.00311723        0.00252764        0.00017083        0.00017830        0.00157488        0.00155037        0.00763036        0.03759612
      74          0.084912        0.000000        0.00008667        0.00787104        0.00125937        0.00904210        0.00005052        0.00022487        0.00086900        0.00000004        0.00078679
      75          0.092679        0.000000        0.00238285        0.00261672        0.01005530        0.00239125        0.00235265        0.00149164        0.00013777        0.00675593        0.00004074
      76          0.099716        0.000000        0.00332754        0.00247118        0.00415640        0.00007100        0.00023173        0.00584159        0.00084902        0.00004662        0.00013907
      77          0.107656        0.000000        0.00065719        0.00254297        0.00047655        0.00451227        0.00000625        0.00001166        0.00014131        0.00142512        0.00113474
      78          0.108115        0.000000        0.00004635        0.00344097        0.00007611        0.00272528        0.00059258        0.00005091        0.00002928        0.00005051        0.00006531
      79          0.113017        0.000000        0.00186767        0.00463008        0.00707452        0.00304515        0.02087600        0.02046238        0.01222971        0.00153494        0.00000061
      80          0.119906        0.000000        0.00136156        0.00471256        0.02063358        0.00279125        0.01489993        0.00789581        0.00006326        0.01167259        0.00018783
      81          0.124964        0.000000        0.00041124        0.00000199        0.00029644        0.00083659        0.00191531        0.00050338        0.00004994        0.00026048        0.00010192
      82          0.135143        0.000000        0.00080447        0.00177081        0.00667889        0.00045015        0.01542710        0.00558348        0.00008335        0.00011321        0.00235566
      83          0.142248        0.000000        0.00144020        0.00037289        0.00085172        0.00484103        0.00021932        0.00008449        0.00056992        0.00194646        0.00210141
      84          0.149995        0.000000        0.00130449        0.00160139        0.00238080        0.00005790        0.00138939        0.00095000        0.00005171        0.00103113        0.00003030
      85          0.159187        0.000000        0.00410631        0.00089644        0.00244882        0.00056946        0.00003803        0.00035297        0.00007480        0.00102317        0.00011706
      86          0.167614        0.000000        0.00054420        0.00100667        0.00399924        0.00098668        0.00811395        0.00427848        0.00004369        0.00560282        0.00003060
      87          0.173707        0.000000        0.00593932        0.00070500        0.00098075        0.00059272        0.00859532        0.00372753        0.00000206        0.00199458        0.00002125
      88          0.175745        0.000000        0.01399893        0.00314769        0.00506860        0.00001439        0.01910418        0.00235047        0.00151468        0.00215908        0.00000569
      89          0.186041        0.000000        0.00066411        0.00044845        0.00049827        0.00144508        0.00235238        0.00126404        0.00041171        0.00541284        0.00269005
      90          0.188486        0.000000        0.02407416        0.00531617        0.03093037        0.00744269        0.00747154        0.01683559        0.01635332        0.00555381        0.00004806
      91          0.192078        0.000000        0.00100495        0.00039436        0.00146384        0.00063776        0.00000002        0.00007882        0.00012225        0.00092445        0.00006622
      92          0.195776        0.000000        0.00795577        0.00040366        0.00053087        0.00139570        0.00064445        0.00025682        0.00046102        0.00003551        0.00011226
      93          0.206517        0.000000        0.03174119        0.00188978        0.00365959        0.00024572        0.00348759        0.00142884        0.00230029        0.00003335        0.00048283
      94          0.207589        0.000000        0.01189742        0.01052175        0.03490211        0.00462914        0.03155640        0.01280751        0.02530619        0.00333324        0.00079978
      95          0.219328        0.000000        0.00787114        0.00336343        0.00936231        0.00012640        0.00117580        0.01674955        0.00331448        0.00063091        0.00307169
      96          0.226428        0.000000        0.02545111        0.01398574        0.01316896        0.00255848        0.00582089        0.01900207        0.01031932        0.00291373        0.00171057
      97          0.229807        0.000000        0.00073695        0.00459233        0.00963194        0.00748897        0.00005646        0.00885594        0.00000429        0.00368292        0.00272109
      98          0.232946        0.000000        0.00258162        0.00654670        0.00959175        0.00654090        0.01324470        0.00416197        0.01690984        0.01722880        0.00023537
      99          0.242783        0.000000        0.01824115        0.00170991        0.00636436        0.00174552        0.00760176        0.00000384        0.00528137        0.00033882        0.00083632
     100          0.253535        0.000000        0.00244383        0.00063647        0.04212899        0.00430819        0.00042381        0.00036474        0.00074851        0.00000114        0.00060587
     101          0.257931        0.000000        0.00065558        0.06438592        0.02594433        0.04488356        0.00041627        0.00327401        0.00853477        0.00107164        0.00008714
     102          0.267907        0.000000        0.00017843        0.00689617        0.00386907        0.00119437        0.00029887        0.00749230        0.00090265        0.00019036        0.00077045
     103          0.273078        0.000000        0.00066953        0.00094632        0.00564380        0.00253832        0.00008998        0.00666116        0.00274818        0.00008095        0.00014582
     104          0.275791        0.000000        0.00027680        0.00881860        0.00075314        0.01286280        0.00005130        0.00021043        0.00094662        0.00026077        0.00029754
     105          0.283886        0.000000        0.00185925        0.00202960        0.00138618        0.00741308        0.00013197        0.00872036        0.00000009        0.00226432        0.00134759
     106          0.286251        0.000000        0.00023445        0.01135012        0.01325255        0.00003081        0.00038728        0.00091932        0.00115966        0.00000015        0.00008018
     107          0.295265        0.000000        0.00060233        0.01182897        0.02595004        0.05321608        0.00348796        0.00143934        0.00511047        0.00347366        0.00000001
     108          0.308923        0.000000        0.00089991        0.04179476        0.00121272        0.00794292        0.00022597        0.00102670        0.00020631        0.00150547        0.00058684
     109          0.311565        0.000000        0.00132237        0.00873241        0.01600595        0.00532572        0.00013653        0.00013050        0.00161998        0.00156151        0.00120178
     110          0.314671        0.000000        0.00420951        0.06084314        0.01113637        0.01374269        0.00291824        0.02914027        0.03354945        0.02001689        0.00133277
     111          0.323519        0.000000        0.00028889        0.01619007        0.00117904        0.00080113        0.00035171        0.01280353        0.00375100        0.00573106        0.00743365
