# Projected DOS for atomic kind C at iteration step i = 0, E(Fermi) =    -0.164373 a.u.
#     MO Eigenvalue [a.u.]      Occupation                 s                py                pz                px               d-2               d-1                d0               d+1               d+2
       1         -1.016958        2.000000        0.15613225        0.14304987        0.06274061        0.08223721        0.03915372        0.01754525        0.01211671        0.00617965        0.00297618
       2         -1.013327        2.000000        0.15613522        0.05073737        0.10145712        0.13448373        0.02307858        0.01296479        0.00758565        0.02803081        0.00497239
       3         -0.847057        2.000000        0.17062582        0.05442221        0.05697691        0.03299361        0.01438487        0.01989538        0.00698522        0.00206351        0.00466821
       4         -0.844861        2.000000        0.17785410        0.05155410        0.05599095        0.03894726        0.00717137        0.00753593        0.01534802        0.01983962        0.00102336
       5         -0.843673        2.000000        0.13507463        0.06196490        0.17970279        0.06669998        0.03448381        0.02739230        0.01970964        0.01829158        0.00585887
       6         -0.839763        2.000000        0.12377775        0.13594061        0.11111429        0.06686517        0.03815179        0.01413005        0.02120857        0.02294631        0.00720785
       7         -0.817357        2.000000        0.31348294        0.11902770        0.06440951        0.14350041        0.01523863        0.01336817        0.00225332        0.01155969        0.00087791
       8         -0.764746        2.000000        0.33915434        0.07587946        0.16470672        0.10910210        0.00866089        0.01000954        0.00330096        0.00562904        0.00362692
       9         -0.759037        2.000000        0.33033370        0.14787436        0.12845623        0.09223133        0.00855664        0.00526684        0.00850046        0.00811229        0.00165187
      10         -0.708011        2.000000        0.35387677        0.12578292        0.06962180        0.15407285        0.00687126        0.01220666        0.00740564        0.00998335        0.00580104
      11         -0.684499        2.000000        0.30654100        0.12683074        0.17068451        0.07447211        0.01227629        0.01253988        0.01092405        0.01600005        0.00893990
      12         -0.675076        2.000000        0.36835318        0.10356502        0.15499774        0.08445713        0.01295006        0.02358846        0.01558358        0.01374472        0.00459775
      13         -0.671622        2.000000        0.34194466        0.12499302        0.13873824        0.07693579        0.01707516        0.01520459        0.01896832        0.01995721        0.00760821
      14         -0.662569        2.000000        0.28888419        0.08426005        0.11245452        0.08233347        0.01274549        0.01971366        0.01541231        0.02370945        0.01313985
      15         -0.640305        2.000000        0.36919865        0.09645310        0.09444039        0.09695127        0.01482016        0.02220771        0.02001936        0.02320263        0.00966064
      16         -0.595758        2.000000        0.22252167        0.18164219        0.08621457        0.22264457        0.00418904        0.01086420        0.00707214        0.01385646        0.00601935
      17         -0.577146        2.000000        0.22478372        0.15186799        0.16029776        0.14734542        0.00592758        0.00565211        0.00487976        0.00465531        0.00291763
      18         -0.555857        2.000000        0.19611959        0.13361283        0.17106947        0.09770347        0.00267995        0.00364645        0.00313002        0.00318400        0.00126147
      19         -0.549423        2.000000        0.22818792        0.18447697        0.16315407        0.06988966        0.00554967        0.00544357        0.00338144        0.00434421        0.00204775
      20         -0.540775        2.000000        0.18643185        0.12343283        0.28701960        0.07883307        0.00669730        0.00782630        0.00606114        0.00729967        0.00361302
      21         -0.537365        2.000000        0.17879909        0.11336936        0.26702963        0.07386818        0.01011960        0.00726473        0.00861762        0.00391244        0.00134911
      22         -0.499879        2.000000        0.14629856        0.13912803        0.17119920        0.10858574        0.00627133        0.00678363        0.00664584        0.00670288        0.00279118
      23         -0.494858        2.000000        0.10318422        0.12896619        0.20261669        0.09720248        0.00829889        0.00878458        0.00719488        0.00728627        0.00376381
      24         -0.481840        2.000000        0.03872054        0.12456402        0.18796258        0.07451115        0.00672662        0.00890393        0.00813938        0.00394921        0.00159876
      25         -0.475269        2.000000        0.10843991        0.09635439        0.14001584        0.05289513        0.00950853        0.01535739        0.01033153        0.01104584        0.00618916
      26         -0.469098        2.000000        0.08240216        0.10332071        0.22319463        0.09233260        0.00855629        0.00749589        0.00865809        0.01412955        0.00596593
      27         -0.466348        2.000000        0.08011603        0.17273987        0.11048575        0.13181815        0.00773633        0.01279040        0.00974276        0.00895194        0.00398933
      28         -0.451195        2.000000        0.08746031        0.18648468        0.07440479        0.14424707        0.01474847        0.01187950        0.01803823        0.01164962        0.00438066
      29         -0.441500        2.000000        0.05955149        0.10154767        0.10543094        0.06664933        0.01291074        0.01172974        0.01388293        0.00851516        0.00309003
      30         -0.440274        2.000000        0.04172799        0.08729371        0.20204175        0.10344071        0.01155590        0.01722897        0.01454958        0.01121425        0.00293260
      31         -0.415949        2.000000        0.00192737        0.20070260        0.08442646        0.24497301        0.00302780        0.00436190        0.00748551        0.00563773        0.01821143
      32         -0.412663        2.000000        0.00152619        0.18004251        0.10598800        0.22854472        0.00446793        0.00792391        0.00972143        0.00431188        0.01900302
      33         -0.408761        2.000000        0.07225843        0.21718725        0.07149444        0.18288542        0.01242046        0.01257712        0.01504987        0.00783918        0.00523133
      34         -0.400475        2.000000        0.02984371        0.16133584        0.15073033        0.21320210        0.00884800        0.01458324        0.00887042        0.01381884        0.01049801
      35         -0.394167        2.000000        0.05929457        0.06539898        0.41596846        0.09490392        0.00346020        0.00612810        0.02399592        0.01696462        0.00521677
      36         -0.391372        2.000000        0.06371697        0.30370437        0.21208278        0.06592506        0.00311869        0.02726973        0.00510018        0.01212077        0.01625555
      37         -0.379091        2.000000        0.02591647        0.20338746        0.18450790        0.16092961        0.00884330        0.01339876        0.01756135        0.01708992        0.01038407
      38         -0.369195        2.000000        0.02276365        0.25403853        0.20999051        0.16172901        0.00556815        0.01950790        0.01048198        0.01036338        0.00654154
      39         -0.363246        2.000000        0.00845233        0.31790563        0.26353840        0.11999606        0.00380480        0.01259606        0.00487668        0.01309201        0.00682844
      40         -0.358095        2.000000        0.00764583        0.09825770        0.25974163        0.34893693        0.00854880        0.01114954        0.01131592        0.00962610        0.00584954
      41         -0.352871        2.000000        0.00545843        0.19065740        0.23433192        0.26383914        0.00598715        0.01142624        0.01294749        0.00465604        0.02313627
      42         -0.349391        2.000000        0.02675584        0.21974529        0.19840126        0.11808662        0.01857211        0.01547931        0.01343694        0.01855849        0.01420211
      43         -0.343664        2.000000        0.01674212        0.15128380        0.15531834        0.27522380        0.01517508        0.01805841        0.00744505        0.00667803        0.01673338
      44         -0.340332        2.000000        0.02289221        0.11742721        0.21971139        0.23357980        0.02166404        0.00744788        0.02009346        0.02502540        0.01119248
      45         -0.334771        2.000000        0.00451117        0.20729397        0.14578170        0.25725052        0.00705042        0.01086733        0.01147148        0.00864893        0.02756874
      46         -0.325615        2.000000        0.01062674        0.24171111        0.09184276        0.24249645        0.00385757        0.01483524        0.01149015        0.01451149        0.02626882
      47         -0.313365        2.000000        0.02145447        0.20591480        0.10610661        0.11225482        0.00908491        0.02310230        0.01083717        0.01166168        0.01225797
      48         -0.304267        2.000000        0.01491998        0.09686383        0.25686117        0.13372220        0.01647578        0.01054103        0.03555179        0.01656583        0.00689763
      49         -0.298263        2.000000        0.02191458        0.14422808        0.13623851        0.06948418        0.00521495        0.02045729        0.01090525        0.01258543        0.01253251
      50         -0.295691        2.000000        0.00100355        0.12888470        0.05118104        0.15589728        0.00716462        0.02017061        0.02483663        0.02134598        0.01886973
      51         -0.293899        2.000000        0.00125096        0.11004745        0.07680539        0.14745974        0.00861338        0.00852605        0.02503242        0.02341372        0.03163461
      52         -0.277091        2.000000        0.00154582        0.21297628        0.14766924        0.27930954        0.00567657        0.01145704        0.02124691        0.01501239        0.03132380
      53         -0.258666        2.000000        0.00173182        0.15679807        0.09362090        0.21362823        0.00587638        0.01039299        0.02361870        0.01745454        0.04216623
      54         -0.241335        2.000000        0.05091833        0.02275503        0.09315633        0.02318449        0.00950975        0.01730766        0.04174353        0.00576819        0.00197629
      55         -0.236905        2.000000        0.04944051        0.05712742        0.06377770        0.03200929        0.00863067        0.03774395        0.01233536        0.00363832        0.01193581
      56         -0.227715        2.000000        0.00079906        0.12912439        0.15879938        0.12915310        0.01542420        0.00774121        0.05107861        0.01207093        0.01393222
      57         -0.221231        2.000000        0.00198703        0.17979745        0.13987743        0.21682871        0.00662254        0.01825949        0.02087681        0.01646010        0.05637775
      58         -0.210611        2.000000        0.00021610        0.26155563        0.07284147        0.34021949        0.00405938        0.01833518        0.01224025        0.01529866        0.05674893
      59         -0.206362        2.000000        0.00047664        0.18268484        0.16601873        0.30297897        0.00880771        0.01819115        0.02323588        0.00753922        0.04811298
      60         -0.179742        2.000000        0.00082458        0.18339862        0.10116903        0.26185082        0.00793384        0.01138341        0.02485651        0.01623408        0.03586696
      61         -0.164373        2.000000        0.00056930        0.20475325        0.12917025        0.26980219        0.00735096        0.01225741        0.02398821        0.01592604        0.03733704
      62         -0.090505        0.000000        0.00053942        0.16036351        0.13029836        0.20853091        0.00830568        0.01875903        0.02319728        0.01421673        0.06536309
      63         -0.047011        0.000000        0.00155967        0.23129199        0.15193211        0.30779834        0.01105581        0.01705330        0.03316777        0.02120691        0.05677086
      64         -0.028583        0.000000        0.00180861        0.23922131        0.14410517        0.32953908        0.01841889        0.02309110        0.04020733        0.03424156        0.04543917
      65         -0.020873        0.000000        0.00284042        0.22215451        0.12659864        0.29366579        0.01505353        0.02014528        0.03551514        0.02718752        0.04963261
      66         -0.004188        0.000000        0.00999228        0.20328740        0.13107623        0.28748789        0.01270157        0.02197450        0.02349935        0.01690241        0.05091066
      67         -0.001271        0.000000        0.06828069        0.13846923        0.05431623        0.17521743        0.01221493        0.01753675        0.02357865        0.01263056        0.03263349
      68          0.004071        0.000000        0.02842935        0.13535806        0.15463964        0.21153578        0.01276916        0.02997655        0.02380783        0.02687509        0.03740179
      69          0.036668        0.000000        0.03795335        0.10976419        0.08737981        0.10511582        0.00879297        0.01051949        0.02664249        0.01462670        0.01879570
      70          0.038579        0.000000        0.04853372        0.04500099        0.03842403        0.02421509        0.00485365        0.01391140        0.01058370        0.00504890        0.00270546
      71          0.043238        0.000000        0.03077949        0.09649293        0.09182182        0.08743170        0.00919977        0.01348917        0.02807438        0.01602647        0.02292370
      72          0.049783        0.000000        0.03783538        0.10878191        0.18933420        0.10429990        0.02843646        0.03155926        0.02029798        0.04872621        0.01039671
      73          0.067912        0.000000        0.00757622        0.19327903        0.15796643        0.25481017        0.01079588        0.01344509        0.03794071        0.01682394        0.02533376
      74          0.087229        0.000000        0.06231796        0.06483909        0.12481471        0.04627474        0.03812170        0.03592893        0.02607173        0.03277585        0.01623339
      75          0.096555        0.000000        0.04053761        0.03796315        0.05269517        0.06091450        0.02785671        0.01673756        0.02766032        0.01517126        0.01056281
      76          0.099441        0.000000        0.14117017        0.09641514        0.04341235        0.08632512        0.03739811        0.03429878        0.03691482        0.02851739        0.03157153
      77          0.103648        0.000000        0.13265995        0.09164666        0.04584507        0.08015100        0.03683430        0.03890336        0.06152595        0.01917233        0.01396727
      78          0.105830        0.000000        0.15010900        0.05237922        0.07656166        0.05273833        0.01332556        0.02698705        0.02109061        0.02395682        0.00828733
      79          0.119805        0.000000        0.26948111        0.07896565        0.04508510        0.05931151        0.04908953        0.02530251        0.01994822        0.02430933        0.01659062
      80          0.122460        0.000000        0.24296131        0.08925984        0.08533596        0.04366805        0.03425822        0.03071199        0.00928031        0.02260808        0.00651791
      81          0.127429        0.000000        0.04706404        0.21211582        0.09617991        0.34644915        0.01043720        0.01998870        0.00701349        0.02844617        0.01579094
      82          0.136127        0.000000        0.18659404        0.12474107        0.07281688        0.15003588        0.03298168        0.02639918        0.01034264        0.03081796        0.01721693
      83          0.143178        0.000000        0.10788884        0.12555645        0.13579771        0.22447719        0.03552321        0.01224660        0.00939601        0.03381280        0.01266823
      84          0.155762        0.000000        0.13556348        0.03293402        0.15500692        0.04016420        0.00323505        0.01011602        0.03270957        0.02856366        0.00553257
      85          0.158257        0.000000        0.13730081        0.10981971        0.08274975        0.02939129        0.00951590        0.03933020        0.00982934        0.01590828        0.02219211
      86          0.169086        0.000000        0.28835921        0.05247784        0.07836249        0.04525291        0.05207662        0.03208521        0.01432016        0.03977273        0.00793149
      87          0.173030        0.000000        0.19692231        0.06743540        0.08090068        0.06585943        0.03536084        0.02557510        0.02088682        0.01965002        0.00579235
      88          0.176625        0.000000        0.29489103        0.04520222        0.06047920        0.05717739        0.04156042        0.02350991        0.01939948        0.03354529        0.00673199
      89          0.184637        0.000000        0.20007761        0.08924236        0.10034407        0.04997185        0.05779618        0.03109095        0.02037160        0.03044453        0.00636834
      90          0.187891        0.000000        0.30888400        0.04736688        0.03951498        0.06601108        0.08303421        0.04676058        0.02975552        0.04225761        0.00785725
      91          0.194293        0.000000        0.32927295        0.06099082        0.05885824        0.03061362        0.07973714        0.04326174        0.01775035        0.03711258        0.01293385
      92          0.195048        0.000000        0.29186832        0.05538268        0.07428610        0.05201715        0.07087533        0.03541822        0.03737284        0.04546700        0.01025885
      93          0.202537        0.000000        0.14122603        0.07677602        0.07244623        0.05338053        0.04960740        0.04055186        0.02789071        0.04133635        0.02408765
      94          0.210172        0.000000        0.22214488        0.06931488        0.05357957        0.06175080        0.06268544        0.04882262        0.07524725        0.02959552        0.01014262
      95          0.220329        0.000000        0.18502683        0.09521004        0.07760744        0.04265044        0.04868632        0.03863403        0.01590560        0.04326239        0.01477622
      96          0.224825        0.000000        0.18953443        0.06002774        0.07586754        0.07873962        0.06122566        0.06306014        0.03798791        0.04275638        0.01438940
      97          0.228659        0.000000        0.15651269        0.08004072        0.09199354        0.05753146        0.05456523        0.03222666        0.03569317        0.03016348        0.00732487
      98          0.238732        0.000000        0.26568884        0.06025301        0.10352248        0.06380013        0.01928931        0.03998177        0.02018584        0.04864961        0.02584909
      99          0.239995        0.000000        0.22639771        0.05631726        0.07637486        0.09999195        0.04287892        0.03135557        0.01668819        0.03955422        0.01715243
     100          0.249204        0.000000        0.18788316        0.07286503        0.10867898        0.07900914        0.03710925        0.03661707        0.02795577        0.04629180        0.02590784
     101          0.255976        0.000000        0.03122802        0.18113619        0.13999802        0.21103256        0.00868784        0.01110744        0.00956716        0.01530020        0.00446277
     102          0.270832        0.000000        0.06685707        0.12858574        0.14182874        0.16770959        0.01492227        0.02027387        0.01019470        0.01864278        0.00642258
     103          0.271868        0.000000        0.21431041        0.07664319        0.05881891        0.06324480        0.04958612        0.02503201        0.01343193        0.04144364        0.00592795
     104          0.276570        0.000000        0.09507293        0.11118328        0.06812981        0.18456553        0.08108893        0.02315014        0.03175454        0.02383781        0.00873818
     105          0.284302        0.000000        0.09432758        0.09847306        0.12283400        0.07213319        0.03992394        0.04453089        0.01514215        0.02628738        0.01557707
     106          0.285418        0.000000        0.18355026        0.09157622        0.06643864        0.06799356        0.02385806        0.04246508        0.04762176        0.02917878        0.01121008
     107          0.295288        0.000000        0.09488154        0.12911855        0.07327653        0.13137416        0.02018192        0.03510001        0.01322438        0.01157147        0.00789185
     108          0.307608        0.000000        0.11597674        0.07105810        0.13174546        0.05575560        0.03911381        0.08255398        0.02650803        0.03677466        0.01715468
     109          0.313900        0.000000        0.12305403        0.07395383        0.08706950        0.07429343        0.03748764        0.05778454        0.01852345        0.03728415        0.01147018
     110          0.318430        0.000000        0.07384032        0.08408688        0.11331778        0.06956309        0.01871423        0.07314426        0.02767847        0.03520536        0.00694432
     111          0.323868        0.000000        0.06968204        0.12190459        0.07370651        0.07804703        0.05040769        0.03631456        0.07224243        0.03650236        0.01159679
