# Projected DOS for atomic kind N at iteration step i = 0, E(Fermi) =    -0.159974 a.u.
#     MO Eigenvalue [a.u.]      Occupation                 s                py                pz                px               d-2               d-1                d0               d+1               d+2
       1         -1.041986        2.000000        0.03937738        0.01899868        0.01496929        0.00023465        0.00024216        0.00117320        0.00000197        0.00000772        0.00027473
       2         -1.025935        2.000000        0.04021083        0.00069512        0.02981288        0.00395719        0.00014208        0.00003595        0.00073199        0.00074804        0.00001598
       3         -0.846859        2.000000        0.27899316        0.02132436        0.02073900        0.00034617        0.00165880        0.00019082        0.00012631        0.00081606        0.00000146
       4         -0.834769        2.000000        0.31398560        0.00117419        0.02049195        0.00192975        0.00044787        0.00010208        0.00072204        0.00224895        0.00009066
       5         -0.833309        2.000000        0.27137442        0.00914332        0.02496861        0.00112554        0.00219708        0.00037119        0.00005653        0.00016003        0.00005288
       6         -0.827011        2.000000        0.30421855        0.01286480        0.01215890        0.00233495        0.00172593        0.00086731        0.00011211        0.00021248        0.00007472
       7         -0.811214        2.000000        0.01950035        0.00685368        0.00279949        0.00956158        0.00013341        0.00019851        0.00010994        0.00018385        0.00003808
       8         -0.766030        2.000000        0.06790869        0.01789244        0.00756211        0.02477453        0.00033601        0.00051653        0.00028869        0.00103275        0.00035515
       9         -0.760246        2.000000        0.07118508        0.00913698        0.00974369        0.01700412        0.00029625        0.00028009        0.00029883        0.00070289        0.00038541
      10         -0.708050        2.000000        0.02512009        0.01037926        0.00999960        0.01379472        0.00044770        0.00084287        0.00050249        0.00047209        0.00019102
      11         -0.692679        2.000000        0.00486151        0.00142045        0.00390274        0.00115188        0.00013573        0.00028703        0.00014000        0.00015071        0.00005887
      12         -0.679565        2.000000        0.00588736        0.01142300        0.00401171        0.01926168        0.00014721        0.00017488        0.00023581        0.00034083        0.00015165
      13         -0.674265        2.000000        0.00627269        0.00656108        0.00200565        0.00917120        0.00002881        0.00014276        0.00009184        0.00016830        0.00009155
      14         -0.657941        2.000000        0.02586984        0.03818995        0.02148484        0.04726555        0.00050550        0.00177113        0.00091396        0.00233481        0.00099746
      15         -0.633921        2.000000        0.03987769        0.01859118        0.03555795        0.02306370        0.00030297        0.00117410        0.00118877        0.00157609        0.00105508
      16         -0.594453        2.000000        0.03031978        0.01190449        0.03391333        0.00410356        0.00053882        0.00095605        0.00091576        0.00014805        0.00029105
      17         -0.580676        2.000000        0.00575396        0.01150129        0.00934621        0.00912744        0.00009907        0.00024796        0.00010416        0.00007840        0.00001541
      18         -0.557866        2.000000        0.00903010        0.03757222        0.03049695        0.06651012        0.00099407        0.00106693        0.00155109        0.00122956        0.00060150
      19         -0.551863        2.000000        0.02332970        0.03372643        0.02969672        0.01925978        0.00067674        0.00189509        0.00118415        0.00088639        0.00044407
      20         -0.544199        2.000000        0.02830499        0.02112928        0.02674757        0.01949791        0.00010565        0.00166584        0.00036182        0.00042137        0.00032686
      21         -0.534872        2.000000        0.01520544        0.05167193        0.02787219        0.07999340        0.00037559        0.00059904        0.00127375        0.00147789        0.00100072
      22         -0.501434        2.000000        0.00537984        0.02626296        0.06715281        0.03680380        0.00150856        0.00146572        0.00311021        0.00134120        0.00097264
      23         -0.493217        2.000000        0.01795653        0.11889641        0.03223933        0.03283209        0.00029657        0.00277811        0.00045144        0.00182868        0.00256432
      24         -0.479191        2.000000        0.01213107        0.09772487        0.06907654        0.07410178        0.00137980        0.00033876        0.00275511        0.00077255        0.00035762
      25         -0.471802        2.000000        0.00423574        0.06096291        0.04136732        0.10986683        0.00159059        0.00041235        0.00176648        0.00070185        0.00069265
      26         -0.465055        2.000000        0.00301854        0.05089607        0.01006109        0.08496595        0.00032326        0.00040495        0.00056597        0.00073197        0.00094468
      27         -0.462717        2.000000        0.00124874        0.11612204        0.03256322        0.04504307        0.00147332        0.00340701        0.00102132        0.00131426        0.00067152
      28         -0.450978        2.000000        0.01861685        0.04377749        0.08654866        0.01656235        0.00039025        0.00187425        0.00066616        0.00038176        0.00075979
      29         -0.447964        2.000000        0.01262311        0.09139200        0.13754855        0.01797909        0.00116715        0.00259035        0.00173132        0.00083221        0.00102164
      30         -0.440414        2.000000        0.00610035        0.09275613        0.17777948        0.07096851        0.00149633        0.00225622        0.00441289        0.00287025        0.00147653
      31         -0.428290        2.000000        0.00025071        0.02613361        0.03323590        0.03321663        0.00072556        0.00022194        0.00205466        0.00111996        0.00110886
      32         -0.416830        2.000000        0.00009529        0.03319139        0.01101689        0.04750467        0.00043816        0.00117510        0.00127406        0.00141788        0.00029750
      33         -0.406097        2.000000        0.00221775        0.05355020        0.01694850        0.05443140        0.00220789        0.00170861        0.00331803        0.00019385        0.00072641
      34         -0.399915        2.000000        0.00561073        0.05856162        0.01993282        0.06901546        0.00200617        0.00135496        0.00216217        0.00034029        0.00062955
      35         -0.398494        2.000000        0.00288871        0.02502723        0.00925297        0.02024130        0.00066257        0.00009268        0.00053714        0.00004422        0.00022795
      36         -0.390401        2.000000        0.00329001        0.01008640        0.00623475        0.01366787        0.00052767        0.00044961        0.00068096        0.00028603        0.00018080
      37         -0.374965        2.000000        0.01068737        0.02562999        0.04581650        0.03203208        0.00087365        0.00097987        0.00048716        0.00050654        0.00078271
      38         -0.370999        2.000000        0.00752798        0.00322330        0.05072110        0.00614612        0.00115746        0.00035678        0.00238679        0.00039443        0.00026470
      39         -0.362552        2.000000        0.00152152        0.01523966        0.01552549        0.02125114        0.00172465        0.00082244        0.00413032        0.00143169        0.00062416
      40         -0.359060        2.000000        0.00290032        0.04582320        0.00147941        0.01553265        0.00231882        0.00408425        0.00146120        0.00178648        0.00126037
      41         -0.350237        2.000000        0.00319558        0.00600217        0.00360002        0.03820279        0.00099587        0.00110491        0.00027246        0.00003790        0.00087234
      42         -0.346849        2.000000        0.00537795        0.01541786        0.01260157        0.04105616        0.00074603        0.00010616        0.00099691        0.00022056        0.00055868
      43         -0.343777        2.000000        0.00265613        0.01972726        0.00497048        0.02369373        0.00041964        0.00039357        0.00021639        0.00036249        0.00018574
      44         -0.333364        2.000000        0.00249656        0.04513213        0.03093898        0.04891144        0.00031803        0.00069862        0.00099131        0.00072808        0.00256827
      45         -0.332083        2.000000        0.00261547        0.04597542        0.00724901        0.04110731        0.00020127        0.00064533        0.00042823        0.00054982        0.00039294
      46         -0.325934        2.000000        0.00135514        0.04210708        0.03357810        0.05540310        0.00032630        0.00064985        0.00106111        0.00080504        0.00108292
      47         -0.314619        2.000000        0.00380361        0.00535411        0.01624796        0.00567775        0.00090437        0.00169913        0.00075825        0.00068026        0.00020516
      48         -0.308322        2.000000        0.00302908        0.00614447        0.01772339        0.00615499        0.00096472        0.00186820        0.00119929        0.00058567        0.00038847
      49         -0.299917        2.000000        0.00047472        0.04055130        0.02655439        0.02362335        0.00083904        0.00055809        0.00035110        0.00012927        0.00005255
      50         -0.296790        2.000000        0.00044354        0.04779428        0.07639981        0.11141704        0.00024246        0.00015686        0.00236123        0.00021200        0.00006031
      51         -0.290303        2.000000        0.00144346        0.12036215        0.04685123        0.13694535        0.00031665        0.00020214        0.00114053        0.00125839        0.00080057
      52         -0.273346        2.000000        0.00400297        0.06921519        0.04098654        0.12929258        0.00008642        0.00144344        0.00075264        0.00074695        0.00474596
      53         -0.255196        2.000000        0.00661024        0.14382326        0.04356348        0.19156195        0.00003873        0.00124263        0.00033981        0.00062802        0.00369408
      54         -0.249347        2.000000        0.10397390        0.19593041        0.34406291        0.01490623        0.00197053        0.00014135        0.00035137        0.00054382        0.00016745
      55         -0.235330        2.000000        0.09594457        0.07416371        0.48437032        0.00801399        0.00264760        0.00003620        0.00017470        0.00046125        0.00000739
      56         -0.230255        2.000000        0.00083493        0.00886075        0.00105149        0.00779471        0.00001640        0.00000231        0.00002156        0.00002455        0.00000672
      57         -0.222301        2.000000        0.00151802        0.05549652        0.01462208        0.07037261        0.00001254        0.00003124        0.00013058        0.00017762        0.00049171
      58         -0.216041        2.000000        0.00080168        0.02815320        0.02786578        0.03805246        0.00004767        0.00011662        0.00018113        0.00002234        0.00022275
      59         -0.209202        2.000000        0.00218537        0.03741776        0.02356785        0.07470681        0.00007026        0.00001858        0.00009976        0.00009376        0.00026852
      60         -0.176644        2.000000        0.00557729        0.08263898        0.04154369        0.14441948        0.00035370        0.00184858        0.00150070        0.00130580        0.00723729
      61         -0.159974        2.000000        0.00381933        0.07720280        0.04637180        0.13049129        0.00037711        0.00139779        0.00160463        0.00128827        0.00497064
      62         -0.091622        0.000000        0.00076760        0.05848459        0.04049844        0.07871795        0.00028257        0.00114342        0.00121074        0.00107565        0.00262331
      63         -0.043267        0.000000        0.00092570        0.01820545        0.01277022        0.02101656        0.00052899        0.00264087        0.00177376        0.00139508        0.00771715
      64         -0.029318        0.000000        0.00087894        0.00400870        0.00282309        0.00701620        0.00036312        0.00027828        0.00129722        0.00045190        0.00183741
      65         -0.017407        0.000000        0.00018805        0.01288101        0.00591133        0.01425980        0.00012629        0.00166605        0.00089138        0.00115048        0.00432708
      66         -0.007340        0.000000        0.00245698        0.01591314        0.01277113        0.02784436        0.00126686        0.00331296        0.00558360        0.00362640        0.00891986
      67         -0.002117        0.000000        0.00446946        0.02801719        0.02217061        0.03806282        0.00076876        0.00197014        0.00557809        0.00301571        0.00193295
      68         -0.000115        0.000000        0.00482388        0.01835785        0.00899458        0.02344417        0.00165883        0.00039101        0.00221704        0.00136418        0.00199885
      69          0.037059        0.000000        0.02534175        0.04659847        0.01793656        0.04706325        0.00575329        0.00353238        0.00167930        0.00146957        0.00753541
      70          0.040264        0.000000        0.18626754        0.01964945        0.03114243        0.02124569        0.00233715        0.00727958        0.00023169        0.00297985        0.01094516
      71          0.045011        0.000000        0.17315636        0.01841330        0.04394500        0.01719268        0.00421491        0.00043766        0.00711989        0.00510135        0.00067532
      72          0.056961        0.000000        0.01208284        0.01413199        0.02160337        0.01765474        0.00340069        0.00242378        0.00636506        0.00386188        0.00135909
      73          0.068620        0.000000        0.00266928        0.03091587        0.01384052        0.03090775        0.00156656        0.00301381        0.00186557        0.00129658        0.00922176
      74          0.085264        0.000000        0.00927464        0.05725627        0.01048744        0.01883787        0.00995567        0.00808688        0.00490004        0.00358983        0.00155752
      75          0.092744        0.000000        0.01491208        0.02845304        0.02819932        0.01303871        0.00809021        0.00351621        0.00412078        0.00127597        0.00016532
      76          0.095613        0.000000        0.00201653        0.02532298        0.01493888        0.02984334        0.00340122        0.00269001        0.01039983        0.00150019        0.00355203
      77          0.110215        0.000000        0.00818131        0.01002223        0.05721026        0.02893819        0.00384941        0.00143014        0.01243742        0.00162195        0.00130647
      78          0.112645        0.000000        0.01213623        0.02525473        0.03123765        0.00802133        0.00441807        0.00550057        0.00754278        0.00168697        0.00050223
      79          0.117937        0.000000        0.04868099        0.01820806        0.00472341        0.01147767        0.00390522        0.00115762        0.00341172        0.00294852        0.00309145
      80          0.125057        0.000000        0.00638551        0.00792722        0.01406184        0.00669484        0.00179232        0.00078047        0.00128694        0.00511737        0.00184423
      81          0.128555        0.000000        0.01939646        0.02790570        0.00647419        0.02061873        0.00525011        0.00093838        0.00285022        0.00232656        0.00312445
      82          0.132744        0.000000        0.00537949        0.01813473        0.00458164        0.01898044        0.00065613        0.00008302        0.00414496        0.00485271        0.00535184
      83          0.141776        0.000000        0.08690343        0.01679767        0.01606918        0.00747724        0.00307702        0.00198538        0.00294970        0.00209771        0.00192065
      84          0.152994        0.000000        0.00864309        0.01553237        0.02669847        0.01521821        0.00163548        0.00208097        0.01437307        0.00103089        0.00686687
      85          0.157018        0.000000        0.00413168        0.02414858        0.00688820        0.00343375        0.00539994        0.00292665        0.00672549        0.00280173        0.00049277
      86          0.171966        0.000000        0.00954142        0.01349606        0.00754006        0.01195974        0.01044015        0.00598973        0.00632487        0.00508283        0.00270884
      87          0.174458        0.000000        0.01519992        0.01231205        0.00772363        0.00935312        0.00419829        0.00379056        0.00389137        0.00468819        0.00280184
      88          0.178875        0.000000        0.03375166        0.01562874        0.01251395        0.03191155        0.00515966        0.00199654        0.00095710        0.00617993        0.00155076
      89          0.186848        0.000000        0.01194229        0.01985498        0.02053620        0.00985591        0.00541063        0.00707258        0.00766381        0.00664502        0.00277183
      90          0.191471        0.000000        0.00437459        0.02066629        0.02986493        0.02270724        0.00552201        0.00756150        0.00522627        0.00378292        0.00276340
      91          0.194879        0.000000        0.01449765        0.00906898        0.03736010        0.01638926        0.00575052        0.00419101        0.00157617        0.00467811        0.00193015
      92          0.199102        0.000000        0.00304115        0.02024283        0.01405944        0.01582564        0.00444389        0.00287156        0.00312548        0.00416237        0.00120068
      93          0.201135        0.000000        0.00271768        0.00715741        0.02764595        0.00958690        0.00451576        0.00187786        0.00150574        0.00192132        0.00046953
      94          0.211915        0.000000        0.02364072        0.03188666        0.03753201        0.00689558        0.00073822        0.01374824        0.00677443        0.00891185        0.00671078
      95          0.221430        0.000000        0.01753359        0.02357699        0.02097089        0.01065547        0.00275255        0.01751262        0.00396609        0.00771208        0.00449785
      96          0.222366        0.000000        0.03414776        0.02303669        0.03109613        0.01982733        0.00096376        0.00146657        0.00425627        0.00405050        0.00147682
      97          0.225807        0.000000        0.02590189        0.01745942        0.01838786        0.02356587        0.00200488        0.00271571        0.00290344        0.00120930        0.00125638
      98          0.239485        0.000000        0.00845274        0.01848760        0.02048742        0.01509012        0.00766027        0.00398117        0.00975041        0.00471725        0.00422110
      99          0.251132        0.000000        0.00238233        0.01097701        0.00875209        0.01732152        0.00062998        0.00256358        0.00047283        0.00523532        0.00230450
     100          0.253689        0.000000        0.00173422        0.03349513        0.02214360        0.04600593        0.00027231        0.00165008        0.00256412        0.00077971        0.00126435
     101          0.259272        0.000000        0.00153686        0.01575894        0.01255750        0.02197381        0.00538766        0.00214313        0.00165390        0.00353561        0.00195942
     102          0.270200        0.000000        0.00536822        0.04395844        0.04779087        0.07638754        0.00235131        0.00606265        0.00670456        0.00559839        0.00659885
     103          0.272107        0.000000        0.00408035        0.04834081        0.02840420        0.06798456        0.00337693        0.00157650        0.01129752        0.00626631        0.00441102
     104          0.278121        0.000000        0.00328135        0.03122230        0.03151817        0.04283690        0.00411168        0.00955969        0.01427035        0.00920263        0.00818327
     105          0.283613        0.000000        0.00171932        0.03175454        0.04525731        0.02638956        0.00641011        0.01496507        0.02275271        0.01329693        0.01295360
     106          0.291473        0.000000        0.00349543        0.05656774        0.05701709        0.06491221        0.00182877        0.00452732        0.00352878        0.00125895        0.00435461
     107          0.298955        0.000000        0.00477763        0.03390846        0.04182222        0.05714443        0.00168991        0.01430082        0.00496053        0.00443709        0.00223818
     108          0.307443        0.000000        0.00661575        0.01307752        0.04582893        0.01462775        0.00396531        0.00052071        0.01368702        0.00422672        0.00041864
     109          0.316375        0.000000        0.04553500        0.05773805        0.11060482        0.00299665        0.00912969        0.00400676        0.00619139        0.00382055        0.00366211
     110          0.319161        0.000000        0.03614370        0.02024338        0.06658227        0.05710689        0.00357467        0.00439225        0.00491376        0.00330494        0.00250341
     111          0.321211        0.000000        0.03774779        0.04220119        0.09319000        0.01562091        0.00763056        0.00519935        0.00625905        0.00527386        0.00142544
