# Projected DOS for atomic kind C at iteration step i = 0, E(Fermi) =    -0.159275 a.u.
#     MO Eigenvalue [a.u.]      Occupation                 s                py                pz                px               d-2               d-1                d0               d+1               d+2
       1         -1.043404        2.000000        0.15473605        0.04823571        0.11535934        0.13246708        0.02067477        0.01553160        0.00883165        0.03040263        0.00667130
       2         -1.027581        2.000000        0.15085123        0.14217230        0.07194017        0.07778190        0.03733910        0.01972483        0.01363356        0.00625395        0.00350555
       3         -0.844966        2.000000        0.13518470        0.16582330        0.07861606        0.07083809        0.03602448        0.01075212        0.02269470        0.02599699        0.00841118
       4         -0.834418        2.000000        0.17186485        0.03519337        0.07945021        0.03325009        0.00709843        0.00843936        0.01004412        0.01809257        0.00181696
       5         -0.832379        2.000000        0.18865151        0.02962778        0.10731659        0.07763437        0.02697390        0.02907206        0.01041761        0.00853629        0.00401790
       6         -0.826805        2.000000        0.13810678        0.07167475        0.11849076        0.03933290        0.02515692        0.01760872        0.01430998        0.00933687        0.00313900
       7         -0.810231        2.000000        0.31352007        0.11411275        0.06508545        0.13895312        0.01517963        0.00989634        0.00268827        0.01265406        0.00126449
       8         -0.765963        2.000000        0.33092213        0.11768326        0.12593441        0.09064908        0.00750319        0.00670842        0.00492309        0.00900061        0.00317879
       9         -0.759959        2.000000        0.31989274        0.10171812        0.15243277        0.10972448        0.00800314        0.00879563        0.00426958        0.00798941        0.00437144
      10         -0.708041        2.000000        0.34240497        0.11385119        0.07209024        0.16386897        0.00661574        0.01192846        0.00807774        0.00887864        0.00563059
      11         -0.692787        2.000000        0.34099054        0.10640968        0.14833091        0.10078589        0.01252416        0.01480193        0.01336889        0.01094928        0.00580523
      12         -0.679430        2.000000        0.36612622        0.13479338        0.12950808        0.08262122        0.01478168        0.01708868        0.01707065        0.01452591        0.00597369
      13         -0.674203        2.000000        0.31586669        0.12599342        0.15286525        0.07296772        0.01812149        0.01761911        0.01666300        0.02123794        0.01002479
      14         -0.657680        2.000000        0.29286532        0.08666022        0.11135515        0.08428841        0.01148047        0.01885360        0.01266275        0.02544682        0.01360089
      15         -0.632913        2.000000        0.36746736        0.09441625        0.09350191        0.09966224        0.01366722        0.02191044        0.01809711        0.02578534        0.01343684
      16         -0.594113        2.000000        0.21837016        0.17406788        0.07838344        0.21169242        0.00587135        0.01196874        0.00816344        0.01613641        0.00866531
      17         -0.580231        2.000000        0.20950888        0.16723108        0.14489296        0.14485302        0.00551536        0.00534495        0.00623980        0.00613182        0.00269188
      18         -0.558423        2.000000        0.19358891        0.14792071        0.16682312        0.12121091        0.00251445        0.00299879        0.00302788        0.00391402        0.00137450
      19         -0.551776        2.000000        0.21259052        0.21698909        0.19169163        0.05734271        0.00452260        0.00593121        0.00332822        0.00503287        0.00388514
      20         -0.544348        2.000000        0.19542990        0.08520996        0.32903117        0.08435376        0.00554809        0.00556751        0.00567715        0.00671559        0.00314858
      21         -0.534350        2.000000        0.20221459        0.11377588        0.22218157        0.09037793        0.00925321        0.00686090        0.00791180        0.00294661        0.00090552
      22         -0.501417        2.000000        0.16280729        0.14182771        0.16499491        0.11793181        0.00667071        0.00870233        0.00621701        0.00687011        0.00293436
      23         -0.493394        2.000000        0.09010727        0.10510026        0.17834792        0.12119814        0.00887476        0.00872623        0.00555869        0.00633883        0.00274799
      24         -0.479098        2.000000        0.04988138        0.13521701        0.18562385        0.07840675        0.00638480        0.01024172        0.00693271        0.00676578        0.00247220
      25         -0.471664        2.000000        0.10482052        0.05626272        0.17200174        0.08380998        0.01151731        0.01194215        0.01437961        0.01275408        0.00442122
      26         -0.464600        2.000000        0.07431312        0.15531010        0.22211677        0.04753312        0.00818395        0.01160962        0.00877874        0.00954287        0.00584874
      27         -0.462257        2.000000        0.09543549        0.10841278        0.14190674        0.16013682        0.01267086        0.01604246        0.01351516        0.00974663        0.00441653
      28         -0.451433        2.000000        0.03647143        0.18155377        0.14600848        0.04312694        0.01409582        0.00964296        0.01421059        0.00874779        0.00627157
      29         -0.446787        2.000000        0.05281982        0.11827706        0.15011654        0.13066847        0.01057905        0.01509952        0.01191007        0.01031071        0.00517356
      30         -0.438439        2.000000        0.10185485        0.10305353        0.06115443        0.09036793        0.00854642        0.01694225        0.01195991        0.01216302        0.00595600
      31         -0.428676        2.000000        0.00118497        0.15564439        0.15506797        0.17685318        0.00571548        0.00840476        0.01592706        0.00293388        0.01472173
      32         -0.417277        2.000000        0.00092048        0.19545201        0.06701742        0.23056788        0.00396633        0.00462481        0.00504882        0.00751095        0.02542549
      33         -0.406197        2.000000        0.06593349        0.24025979        0.06640459        0.17106792        0.00905315        0.02006383        0.00874137        0.00808331        0.00654373
      34         -0.399865        2.000000        0.03624491        0.20672625        0.15968917        0.16157245        0.00509738        0.01558609        0.00898747        0.01509525        0.00866517
      35         -0.397735        2.000000        0.05368974        0.19082224        0.27630719        0.10155156        0.00678539        0.01396712        0.00497603        0.01277002        0.01029357
      36         -0.391280        2.000000        0.05874725        0.08996731        0.31624381        0.18422230        0.00939367        0.00473495        0.03163117        0.01531091        0.00239561
      37         -0.374591        2.000000        0.02627551        0.12561558        0.24720443        0.15968813        0.00619137        0.01669000        0.01496965        0.01663180        0.01147193
      38         -0.370561        2.000000        0.02672212        0.18397868        0.25396028        0.13970846        0.00531723        0.01274073        0.01695069        0.01145936        0.00504348
      39         -0.362265        2.000000        0.00934542        0.32165001        0.14717993        0.25552573        0.00967325        0.01021046        0.01093407        0.00585453        0.00381710
      40         -0.359282        2.000000        0.01458452        0.20560175        0.20989479        0.28056034        0.00889945        0.00883220        0.00908184        0.00549847        0.00383510
      41         -0.349460        2.000000        0.01468582        0.19603727        0.17941478        0.29797979        0.01133558        0.01184824        0.01480495        0.00660923        0.01476878
      42         -0.345820        2.000000        0.02556367        0.17579340        0.19279081        0.23565115        0.01652765        0.01588524        0.01701856        0.01036729        0.01177267
      43         -0.342403        2.000000        0.02547519        0.23906710        0.22875871        0.13283761        0.01414279        0.02081948        0.01011618        0.02525854        0.01299019
      44         -0.333398        2.000000        0.00306891        0.22066177        0.16112989        0.30607613        0.00795730        0.00951209        0.00614311        0.00869348        0.02581870
      45         -0.331732        2.000000        0.01847091        0.19572522        0.20759001        0.11956950        0.00799435        0.02376942        0.01463010        0.02812916        0.01994365
      46         -0.325755        2.000000        0.00244863        0.19624369        0.14163781        0.24955267        0.00579988        0.01443703        0.00846488        0.01161494        0.03220069
      47         -0.314441        2.000000        0.01697594        0.18705284        0.17148199        0.11081066        0.01129920        0.02499584        0.01885186        0.01389261        0.00749585
      48         -0.308700        2.000000        0.01239302        0.14681185        0.22249639        0.13487488        0.01466558        0.01860184        0.03137972        0.01760143        0.00893562
      49         -0.299646        2.000000        0.01859768        0.12310244        0.13831217        0.06016641        0.00700057        0.01363018        0.01058884        0.02046529        0.00693458
      50         -0.296048        2.000000        0.00425017        0.09365044        0.11047921        0.14285271        0.00923267        0.00989488        0.02776259        0.01005717        0.03408662
      51         -0.290000        2.000000        0.00079722        0.14872513        0.06548362        0.16190522        0.00773049        0.01865980        0.02438689        0.02306358        0.01828770
      52         -0.273166        2.000000        0.00130501        0.20434108        0.15301108        0.25748414        0.00641883        0.00965510        0.01926851        0.01395037        0.03342114
      53         -0.254717        2.000000        0.00208785        0.15519260        0.09400765        0.19750730        0.00710835        0.00958889        0.01950609        0.01728788        0.04239463
      54         -0.250267        2.000000        0.04845306        0.07047774        0.05921078        0.01495776        0.00661951        0.03933938        0.01240947        0.00192165        0.01075072
      55         -0.235443        2.000000        0.04665132        0.02572185        0.09265616        0.02321617        0.00857386        0.01499080        0.03731361        0.00495486        0.00079165
      56         -0.230510        2.000000        0.00081583        0.13917356        0.10595422        0.18257611        0.01662534        0.00838326        0.04225902        0.01376571        0.01876173
      57         -0.222173        2.000000        0.00058357        0.23420587        0.09910600        0.27494169        0.00614459        0.01859893        0.01891615        0.01397315        0.05395960
      58         -0.215845        2.000000        0.00065890        0.18873513        0.14262858        0.31315235        0.00908219        0.01288009        0.01763669        0.01429209        0.05332221
      59         -0.209108        2.000000        0.00093383        0.19271183        0.15159712        0.25022195        0.00993486        0.01524629        0.02599185        0.00889411        0.05026985
      60         -0.176458        2.000000        0.00104007        0.18231353        0.10758583        0.24172620        0.00671276        0.00986828        0.02389378        0.01576093        0.03660273
      61         -0.159275        2.000000        0.00089270        0.19389925        0.12935009        0.26441609        0.00652423        0.01216155        0.02307774        0.01492759        0.03907789
      62         -0.092426        0.000000        0.00129254        0.17153680        0.12906360        0.19203392        0.00755893        0.01981488        0.02150166        0.01365831        0.06006966
      63         -0.043111        0.000000        0.00189256        0.23762641        0.14905009        0.32397237        0.01640228        0.01853309        0.03408129        0.01906925        0.05509734
      64         -0.029283        0.000000        0.00212164        0.23399757        0.14968640        0.32160396        0.02284949        0.02051353        0.04513417        0.02794180        0.04413238
      65         -0.017535        0.000000        0.00131324        0.23131767        0.12247454        0.29584633        0.01411496        0.02367394        0.03550115        0.02426983        0.05258401
      66         -0.007199        0.000000        0.00488178        0.22080756        0.13645866        0.30399228        0.01178980        0.02360810        0.02468066        0.01410908        0.05987715
      67         -0.002088        0.000000        0.03500443        0.13058550        0.15280008        0.21574114        0.01675001        0.02793199        0.02555628        0.02178286        0.03619987
      68         -0.000610        0.000000        0.06701011        0.14553416        0.06253051        0.13563805        0.01323035        0.01710914        0.02488227        0.00828443        0.03255947
      69          0.036532        0.000000        0.01800523        0.16448898        0.11236101        0.16387689        0.01329699        0.01414444        0.02957904        0.02202737        0.03607884
      70          0.039125        0.000000        0.04615769        0.01125028        0.04935618        0.02318369        0.00275806        0.00120506        0.00757918        0.01474265        0.00382787
      71          0.043721        0.000000        0.03378723        0.05302241        0.04415670        0.03519717        0.00271489        0.01565089        0.00762158        0.01218383        0.00555561
      72          0.056270        0.000000        0.03790927        0.10402047        0.14121393        0.12216933        0.03382624        0.03772523        0.01900903        0.04507642        0.01047403
      73          0.068444        0.000000        0.01258340        0.22534992        0.13868963        0.27774169        0.01572330        0.00795580        0.03411739        0.01793307        0.02659650
      74          0.082364        0.000000        0.09454167        0.07504717        0.04006201        0.06008214        0.03286050        0.04146215        0.01646654        0.01830693        0.00848902
      75          0.093352        0.000000        0.11298748        0.05613646        0.07767561        0.05815167        0.07423481        0.03370595        0.05285938        0.04388814        0.01111052
      76          0.097133        0.000000        0.17026434        0.04643316        0.06949699        0.06270461        0.02589502        0.02947784        0.02944983        0.03019702        0.00956208
      77          0.109284        0.000000        0.09702968        0.08597223        0.09610412        0.08424169        0.02606161        0.03307247        0.02935659        0.02696629        0.02876043
      78          0.112245        0.000000        0.16758350        0.05011503        0.06081255        0.09340989        0.02251802        0.01997749        0.01843773        0.01812703        0.01039661
      79          0.117551        0.000000        0.13839082        0.09637028        0.11053519        0.15309465        0.04636831        0.02969807        0.01449712        0.04966295        0.01122545
      80          0.123429        0.000000        0.18300427        0.07252709        0.09928127        0.11329111        0.02596914        0.03142447        0.02468525        0.02821958        0.00944096
      81          0.127290        0.000000        0.15478539        0.17111582        0.08303511        0.13630782        0.02447792        0.02382835        0.00752920        0.02130774        0.01889521
      82          0.132077        0.000000        0.06779382        0.24660199        0.12167384        0.27144684        0.01221452        0.01767987        0.01894114        0.01474620        0.01707661
      83          0.140803        0.000000        0.22284482        0.07609738        0.07240525        0.09497894        0.03064370        0.02567092        0.01363769        0.02891971        0.01409524
      84          0.153372        0.000000        0.12710806        0.03166569        0.12987715        0.04770840        0.00541167        0.00729102        0.02908919        0.02007859        0.00335649
      85          0.155991        0.000000        0.15266375        0.12238540        0.09000421        0.02840000        0.00506308        0.03407450        0.00643979        0.01448268        0.01664397
      86          0.170550        0.000000        0.27924111        0.04049989        0.05366052        0.05234382        0.04394016        0.03266368        0.02592025        0.01993159        0.01370674
      87          0.174290        0.000000        0.23358558        0.08534991        0.05001806        0.04782004        0.03063634        0.03006527        0.03123365        0.05269898        0.01019698
      88          0.179240        0.000000        0.23079565        0.05727815        0.08347593        0.06605833        0.06483427        0.05554904        0.01944432        0.06458249        0.01367332
      89          0.187047        0.000000        0.34178376        0.03805053        0.06604116        0.03584461        0.06410096        0.02161111        0.02713416        0.04021787        0.00709691
      90          0.191689        0.000000        0.22866783        0.06736629        0.11273118        0.05423786        0.06574992        0.02113526        0.01840611        0.04827814        0.01053549
      91          0.194483        0.000000        0.22401500        0.05254758        0.08298438        0.03418246        0.05280976        0.04770092        0.03068270        0.04531072        0.01189325
      92          0.198222        0.000000        0.28402723        0.05955823        0.07967984        0.02612870        0.04965787        0.04565271        0.01555088        0.03233633        0.01893740
      93          0.201220        0.000000        0.26330386        0.05145570        0.08804146        0.04296640        0.04901147        0.04927313        0.01866260        0.04327130        0.01166255
      94          0.211392        0.000000        0.22593797        0.06649616        0.05915157        0.05119106        0.05287736        0.06360510        0.04025114        0.05274275        0.01312303
      95          0.220624        0.000000        0.23859053        0.05872053        0.07901469        0.04348616        0.06169354        0.02613757        0.03873507        0.03525544        0.00423575
      96          0.221918        0.000000        0.19141914        0.09413799        0.05540876        0.05903455        0.04559469        0.06170699        0.00950780        0.03461822        0.02074741
      97          0.226028        0.000000        0.18029182        0.06311864        0.09642527        0.05375049        0.06309072        0.01747204        0.02663292        0.02937303        0.00519999
      98          0.239305        0.000000        0.24567592        0.08201642        0.09277084        0.07196397        0.03532689        0.03209994        0.02231536        0.03793689        0.01953549
      99          0.251282        0.000000        0.19352781        0.06480352        0.08721751        0.07630498        0.05169716        0.04482663        0.03605602        0.03272804        0.00927442
     100          0.253970        0.000000        0.02794004        0.20923249        0.14993809        0.20446637        0.00357907        0.00849038        0.00417751        0.00756158        0.01151696
     101          0.258376        0.000000        0.22059261        0.05194564        0.08876872        0.06011602        0.02983412        0.04863611        0.01663033        0.06218925        0.02952715
     102          0.269342        0.000000        0.14717074        0.10637075        0.08476713        0.10512452        0.03283304        0.01778376        0.01700650        0.02714528        0.00988556
     103          0.271740        0.000000        0.06772549        0.12282596        0.12229926        0.19544575        0.02180883        0.03318104        0.00574217        0.02202970        0.01015247
     104          0.276648        0.000000        0.19005047        0.07902143        0.06517879        0.07851276        0.02665001        0.04809747        0.03530756        0.03569076        0.00980214
     105          0.282866        0.000000        0.13176032        0.11064175        0.07303928        0.08627017        0.05610416        0.04353161        0.02799933        0.02570907        0.01264553
     106          0.290559        0.000000        0.02297679        0.07444565        0.10926081        0.21286492        0.03028607        0.02357241        0.02871922        0.01557216        0.01387879
     107          0.299450        0.000000        0.05239504        0.16714079        0.08153580        0.09216577        0.03350158        0.03609126        0.03950294        0.02717220        0.01041868
     108          0.307508        0.000000        0.09269894        0.05715718        0.11462607        0.08277991        0.05331204        0.05712942        0.02875743        0.06037399        0.01402472
     109          0.315541        0.000000        0.12379552        0.07365261        0.10140873        0.04113698        0.04525030        0.07658139        0.02660338        0.02936845        0.01035380
     110          0.318566        0.000000        0.06236457        0.08474702        0.12238277        0.06919203        0.04752927        0.03009277        0.05533504        0.05837197        0.01459045
     111          0.320387        0.000000        0.12085080        0.08036988        0.11371190        0.06753583        0.05220310        0.05027474        0.03047686        0.05863337        0.01110862
