# Projected DOS for atomic kind O at iteration step i = 0, E(Fermi) =    -0.156628 a.u.
#     MO Eigenvalue [a.u.]      Occupation                 s                py                pz                px               d-2               d-1                d0               d+1               d+2
       1         -1.041896        2.000000        0.35416244        0.01842906        0.00616509        0.00463509        0.00054938        0.00053341        0.00005891        0.00097760        0.00001668
       2         -1.030059        2.000000        0.35699361        0.00090613        0.01931131        0.01002975        0.00118939        0.00037992        0.00009996        0.00027860        0.00003734
       3         -0.849503        2.000000        0.00121452        0.00024674        0.00041913        0.00095179        0.00004269        0.00000645        0.00000843        0.00001746        0.00000488
       4         -0.838881        2.000000        0.00643041        0.00052670        0.00041591        0.00091556        0.00004954        0.00000026        0.00000802        0.00005189        0.00000143
       5         -0.831801        2.000000        0.06824209        0.00868879        0.01538949        0.00140184        0.00003121        0.00235223        0.00037437        0.00018454        0.00070493
       6         -0.830559        2.000000        0.07000871        0.00357787        0.01630587        0.00163929        0.00006164        0.00041578        0.00183901        0.00098923        0.00016510
       7         -0.807128        2.000000        0.00102060        0.00651198        0.00577915        0.01527964        0.00020505        0.00041889        0.00028288        0.00086707        0.00023606
       8         -0.763525        2.000000        0.00222165        0.01368586        0.02264403        0.02833125        0.00180461        0.00149073        0.00141762        0.00012144        0.00025175
       9         -0.755978        2.000000        0.00278895        0.01640304        0.00831309        0.00968844        0.00158860        0.00084363        0.00146915        0.00022681        0.00021058
      10         -0.708319        2.000000        0.00133010        0.01407532        0.01863744        0.03194965        0.00083758        0.00125464        0.00101047        0.00177202        0.00041670
      11         -0.687573        2.000000        0.00184442        0.02985003        0.02115590        0.03499819        0.00069029        0.00109561        0.00067029        0.00023247        0.00014039
      12         -0.675556        2.000000        0.01116819        0.00634419        0.00377238        0.00502808        0.00069695        0.00011391        0.00032757        0.00091435        0.00032829
      13         -0.670603        2.000000        0.00973128        0.00034198        0.00021696        0.00025417        0.00043660        0.00028682        0.00010808        0.00077185        0.00024400
      14         -0.658369        2.000000        0.00119126        0.00978388        0.00905050        0.01216249        0.00193051        0.00148261        0.00136234        0.00040982        0.00022613
      15         -0.632622        2.000000        0.00540788        0.00810603        0.00526742        0.00651572        0.00141044        0.00069594        0.00097836        0.00045418        0.00034485
      16         -0.595345        2.000000        0.00439836        0.00417448        0.02500810        0.02576652        0.00064400        0.00048391        0.00071888        0.00099929        0.00022617
      17         -0.579332        2.000000        0.00071858        0.05263772        0.05545124        0.06111026        0.00031994        0.00147136        0.00050671        0.00027672        0.00032316
      18         -0.559693        2.000000        0.00553324        0.05754135        0.03977018        0.03805760        0.00081116        0.00030727        0.00066814        0.00080354        0.00045039
      19         -0.547934        2.000000        0.00335944        0.00979624        0.02140032        0.00003033        0.00046550        0.00054673        0.00035625        0.00094613        0.00022717
      20         -0.542528        2.000000        0.02334257        0.01441293        0.02709503        0.00358019        0.00075337        0.00009268        0.00021727        0.00030575        0.00003514
      21         -0.534463        2.000000        0.03176683        0.00881935        0.02033280        0.00210052        0.00038033        0.00014652        0.00001286        0.00031255        0.00004109
      22         -0.505728        2.000000        0.00410623        0.02470731        0.05966107        0.02261554        0.00014240        0.00060860        0.00072473        0.00011390        0.00011777
      23         -0.495676        2.000000        0.00654367        0.04356811        0.04384761        0.00274571        0.00045742        0.00074912        0.00038098        0.00141496        0.00084209
      24         -0.484124        2.000000        0.00858999        0.02215998        0.03883826        0.03106710        0.00119428        0.00011068        0.00102806        0.00070982        0.00014165
      25         -0.472733        2.000000        0.01062227        0.03410345        0.01993566        0.04702943        0.00038324        0.00059076        0.00011286        0.00056458        0.00017547
      26         -0.465516        2.000000        0.00513763        0.02089452        0.00966116        0.01464604        0.00075104        0.00032559        0.00025566        0.00013461        0.00006689
      27         -0.463489        2.000000        0.00251710        0.00164252        0.00994598        0.00063172        0.00059923        0.00015795        0.00022543        0.00014732        0.00008652
      28         -0.451854        2.000000        0.02850480        0.05222753        0.05441914        0.00512144        0.00025331        0.00038461        0.00004652        0.00025829        0.00000664
      29         -0.446186        2.000000        0.01903889        0.00871907        0.05787705        0.00589370        0.00038554        0.00038062        0.00002776        0.00010813        0.00011086
      30         -0.440228        2.000000        0.00149949        0.00290175        0.00945223        0.00452367        0.00033044        0.00016087        0.00037950        0.00062610        0.00029394
      31         -0.425947        2.000000        0.00011732        0.15155992        0.09974316        0.11892423        0.00027851        0.00004990        0.00130919        0.00094572        0.00228833
      32         -0.417910        2.000000        0.00016838        0.11835984        0.04758524        0.19321512        0.00019697        0.00151114        0.00158487        0.00079062        0.00109666
      33         -0.408790        2.000000        0.00403168        0.01461696        0.00717029        0.06123624        0.00077408        0.00002568        0.00030186        0.00043444        0.00011235
      34         -0.398571        2.000000        0.00448530        0.02671172        0.02406994        0.04397432        0.00019053        0.00035371        0.00008600        0.00026264        0.00011293
      35         -0.392537        2.000000        0.00037526        0.01058916        0.00184011        0.00704715        0.00000068        0.00004960        0.00007037        0.00004993        0.00001839
      36         -0.386944        2.000000        0.00169321        0.00537676        0.00476913        0.00458363        0.00006547        0.00003910        0.00004523        0.00013464        0.00007883
      37         -0.374340        2.000000        0.00564641        0.03902726        0.01092848        0.02585646        0.00027387        0.00009341        0.00019941        0.00069580        0.00027467
      38         -0.363688        2.000000        0.02147238        0.04903825        0.04598610        0.05381964        0.00047476        0.00093848        0.00022635        0.00166416        0.00035502
      39         -0.360016        2.000000        0.00485939        0.03474524        0.04080337        0.00684945        0.00058742        0.00112157        0.00015873        0.00021790        0.00009590
      40         -0.354206        2.000000        0.00877760        0.00744126        0.05246753        0.01069643        0.00003982        0.00033599        0.00031843        0.00119861        0.00027366
      41         -0.349900        2.000000        0.01073277        0.04618574        0.01182652        0.00466001        0.00055224        0.00005649        0.00089651        0.00088624        0.00018017
      42         -0.345981        2.000000        0.00725583        0.00025921        0.03416079        0.00580828        0.00038906        0.00081365        0.00004632        0.00045980        0.00167678
      43         -0.344310        2.000000        0.00376156        0.00026544        0.01061273        0.00392997        0.00056927        0.00042569        0.00135699        0.00029939        0.00060168
      44         -0.335877        2.000000        0.00096337        0.00413243        0.00858909        0.02855946        0.00021747        0.00015769        0.00024173        0.00008809        0.00150780
      45         -0.333907        2.000000        0.00180779        0.00396829        0.02020860        0.01572496        0.00035116        0.00060828        0.00014096        0.00106302        0.00033218
      46         -0.326173        2.000000        0.00093938        0.01658524        0.00765432        0.07929000        0.00000851        0.00008316        0.00011742        0.00000264        0.00015290
      47         -0.312637        2.000000        0.00225406        0.01139758        0.01992754        0.01068703        0.00101131        0.00036366        0.00026973        0.00062465        0.00008355
      48         -0.306717        2.000000        0.00836463        0.03111420        0.09419128        0.03059007        0.00050392        0.00098712        0.00036100        0.00101586        0.00011910
      49         -0.296375        2.000000        0.01089393        0.04429200        0.05090158        0.06970668        0.00019807        0.00003696        0.00002941        0.00143318        0.00033133
      50         -0.292956        2.000000        0.00038619        0.11098391        0.03535850        0.08904062        0.00029729        0.00032989        0.00133936        0.00055542        0.00041575
      51         -0.290429        2.000000        0.00110441        0.11949383        0.02111797        0.04704889        0.00023273        0.00013735        0.00118465        0.00004576        0.00019558
      52         -0.275040        2.000000        0.00012328        0.00130618        0.00026490        0.00022314        0.00081809        0.00110019        0.00235240        0.00079282        0.00429055
      53         -0.253567        2.000000        0.00005281        0.00045660        0.00063996        0.00064675        0.00118973        0.00105894        0.00248101        0.00100587        0.00288125
      54         -0.248839        2.000000        0.00151111        0.01448753        0.02731943        0.00024974        0.00032420        0.00073678        0.00107856        0.00004839        0.00014382
      55         -0.237636        2.000000        0.00198801        0.00355465        0.04712560        0.00307427        0.00012608        0.00085627        0.00103661        0.00000638        0.00000521
      56         -0.227017        2.000000        0.00033545        0.00024710        0.00072871        0.00084049        0.00009240        0.00030154        0.00008765        0.00016732        0.00110302
      57         -0.218961        2.000000        0.00001683        0.00933901        0.00624710        0.01462546        0.00003692        0.00028340        0.00003908        0.00010864        0.00202745
      58         -0.213269        2.000000        0.00001826        0.03665267        0.02299080        0.03698512        0.00015774        0.00058240        0.00035017        0.00017704        0.00256862
      59         -0.209172        2.000000        0.00003306        0.03642347        0.02048954        0.03739191        0.00003370        0.00025261        0.00010164        0.00011381        0.00139052
      60         -0.175659        2.000000        0.00003741        0.00277109        0.00134219        0.00317456        0.00061066        0.00039191        0.00135260        0.00054767        0.00118555
      61         -0.156628        2.000000        0.00005523        0.00130005        0.00032035        0.00065334        0.00036408        0.00043252        0.00099030        0.00030833        0.00142266
      62         -0.093261        0.000000        0.00017631        0.01807521        0.00821604        0.01715447        0.00040373        0.00046571        0.00117675        0.00076896        0.00047441
      63         -0.044460        0.000000        0.00019079        0.00660453        0.00548517        0.00779242        0.00094040        0.00063633        0.00317136        0.00137239        0.00143546
      64         -0.028113        0.000000        0.00022607        0.01120783        0.00400354        0.01436746        0.00006997        0.00152864        0.00065541        0.00021791        0.00701293
      65         -0.020706        0.000000        0.00001103        0.03124691        0.02000022        0.04360171        0.00009279        0.00162583        0.00089216        0.00113007        0.00658080
      66         -0.005371        0.000000        0.00191080        0.01163242        0.00618480        0.00731624        0.00073619        0.00007125        0.00028926        0.00039041        0.00287568
      67         -0.002994        0.000000        0.01500986        0.00894676        0.00807159        0.01076821        0.00358795        0.00172409        0.00256593        0.00073124        0.00000565
      68         -0.000282        0.000000        0.00043218        0.00061855        0.00221300        0.00148277        0.00083939        0.00089220        0.00095293        0.00017987        0.00114320
      69          0.036530        0.000000        0.02346330        0.00908516        0.01882400        0.01946549        0.00421803        0.00012449        0.00459059        0.00207148        0.00037768
      70          0.048626        0.000000        0.00019015        0.00036648        0.00001083        0.00092769        0.00006421        0.00026779        0.00022230        0.00033592        0.00034084
      71          0.048740        0.000000        0.00127185        0.00075197        0.00077386        0.00043357        0.00009576        0.00003583        0.00025850        0.00000854        0.00050019
      72          0.053047        0.000000        0.06608234        0.01490295        0.00109070        0.00979980        0.00006889        0.00296022        0.00120488        0.00305812        0.00053584
      73          0.064926        0.000000        0.00206950        0.00593216        0.00735518        0.01222318        0.00191842        0.00047591        0.00546182        0.00225379        0.00102455
      74          0.090866        0.000000        0.09506916        0.00530525        0.00704874        0.01032781        0.00068194        0.00191757        0.00001143        0.00251686        0.00132464
      75          0.097293        0.000000        0.01406274        0.01888994        0.00153605        0.02119183        0.00235565        0.00071439        0.00157671        0.00034043        0.00061143
      76          0.099391        0.000000        0.00406995        0.00230462        0.00133373        0.00252206        0.00064159        0.00081597        0.00054077        0.00022112        0.00010379
      77          0.100335        0.000000        0.00143839        0.00701061        0.00238911        0.01586361        0.00081209        0.00107568        0.00125327        0.00047509        0.00078289
      78          0.110883        0.000000        0.09986996        0.00310494        0.01394040        0.00167068        0.00055785        0.00356684        0.00134579        0.00038757        0.00097667
      79          0.119850        0.000000        0.02518664        0.00007557        0.00271279        0.00017163        0.00110328        0.00063332        0.00028548        0.00004232        0.00038543
      80          0.121973        0.000000        0.02523471        0.00221444        0.00254031        0.00259595        0.00181490        0.00085632        0.00024873        0.00016656        0.00196880
      81          0.125889        0.000000        0.01592400        0.00645059        0.00010443        0.00217915        0.00016794        0.00117488        0.00231292        0.00111174        0.00463463
      82          0.127010        0.000000        0.03828171        0.00633787        0.00040600        0.00408181        0.00068700        0.00093272        0.00085703        0.00116845        0.00429312
      83          0.139497        0.000000        0.00200145        0.00621185        0.00392848        0.00329165        0.00070531        0.00159899        0.00071284        0.00187251        0.00077492
      84          0.150629        0.000000        0.00063541        0.00165286        0.00361454        0.00015988        0.00066310        0.00087606        0.00023772        0.00036880        0.00044849
      85          0.157644        0.000000        0.00130938        0.00019848        0.00725542        0.00148099        0.00039433        0.00035951        0.00015772        0.00037704        0.00032206
      86          0.168286        0.000000        0.00112115        0.02101551        0.01242017        0.00491052        0.00279595        0.00333852        0.00365394        0.00034383        0.00013404
      87          0.180149        0.000000        0.00189994        0.00558396        0.00096190        0.00201796        0.00105096        0.00049840        0.00084460        0.00031537        0.00006342
      88          0.184385        0.000000        0.00045865        0.01456774        0.03113832        0.01602263        0.00526444        0.00778843        0.00609021        0.00057705        0.00114539
      89          0.188025        0.000000        0.00370950        0.00175369        0.00657084        0.00315095        0.00131938        0.00385373        0.00080555        0.00052484        0.00048364
      90          0.192066        0.000000        0.00678189        0.00494572        0.00481946        0.00293740        0.00048815        0.00482116        0.00354338        0.00242211        0.00039919
      91          0.194342        0.000000        0.00089625        0.01691637        0.00577724        0.00538858        0.00078903        0.00057852        0.00089507        0.00126995        0.00016017
      92          0.197230        0.000000        0.00026751        0.02818145        0.02251318        0.01273079        0.00242319        0.00803695        0.00679221        0.00113001        0.00083775
      93          0.203472        0.000000        0.00182707        0.00335001        0.03586520        0.01054525        0.00093470        0.00301824        0.00198971        0.00075965        0.00020569
      94          0.215871        0.000000        0.00527195        0.01382924        0.00374335        0.01588001        0.01145219        0.00160166        0.00284641        0.00154284        0.00063995
      95          0.218269        0.000000        0.00018730        0.00203690        0.03830998        0.02675864        0.00437906        0.00454839        0.00122992        0.00707773        0.00401941
      96          0.226757        0.000000        0.00206584        0.02237910        0.02244657        0.01816603        0.00693378        0.00048505        0.00246884        0.00325842        0.00135960
      97          0.229095        0.000000        0.00354007        0.01511008        0.01487247        0.00803917        0.00612367        0.00140267        0.00626428        0.00055508        0.00051904
      98          0.237840        0.000000        0.00162621        0.00484901        0.00862782        0.00145918        0.00407098        0.00144762        0.00169843        0.00002206        0.00054650
      99          0.248473        0.000000        0.00310048        0.00397586        0.01714490        0.00345651        0.00052031        0.00110167        0.00163379        0.00284428        0.00001756
     100          0.256630        0.000000        0.00235848        0.01680364        0.02956861        0.01931915        0.00882494        0.00185421        0.00036891        0.00275090        0.00141888
     101          0.257973        0.000000        0.00104854        0.01251190        0.00406095        0.00466670        0.00077945        0.00097480        0.00134771        0.00009486        0.00083484
     102          0.268191        0.000000        0.00191234        0.01250949        0.01607489        0.00335567        0.00293386        0.00031247        0.00220075        0.00416974        0.00089049
     103          0.272890        0.000000        0.00054148        0.00474732        0.01218475        0.00447135        0.00033272        0.00006441        0.00098109        0.00216519        0.00010880
     104          0.278969        0.000000        0.00173664        0.00751607        0.00366281        0.01784358        0.00426878        0.00151602        0.00070900        0.00176037        0.00037527
     105          0.285523        0.000000        0.00072033        0.00389381        0.01265199        0.00220461        0.00059706        0.01299868        0.00537526        0.00085576        0.00069595
     106          0.286181        0.000000        0.00141814        0.00164695        0.01784333        0.00307705        0.00095513        0.01240353        0.00507481        0.00126359        0.00153248
     107          0.298667        0.000000        0.00145758        0.00068289        0.00352234        0.00288974        0.00132910        0.00155539        0.00146652        0.00118581        0.00044508
     108          0.305992        0.000000        0.01048588        0.00602566        0.00341100        0.00745969        0.00206919        0.00410226        0.00144715        0.00262352        0.00137306
     109          0.313165        0.000000        0.00514643        0.00233263        0.00450119        0.00736864        0.00126432        0.00441097        0.00385364        0.00051181        0.00032900
     110          0.316717        0.000000        0.00785555        0.00347326        0.00738015        0.00492648        0.00381964        0.00843622        0.00463609        0.00085692        0.00073879
     111          0.323042        0.000000        0.00051748        0.00600956        0.00405830        0.00101454        0.00009200        0.00164737        0.00028767        0.00018317        0.00011675
