# Projected DOS for atomic kind N at iteration step i = 0, E(Fermi) =    -0.162414 a.u.
#     MO Eigenvalue [a.u.]      Occupation                 s                py                pz                px               d-2               d-1                d0               d+1               d+2
       1         -1.037127        2.000000        0.04298818        0.02019892        0.01506716        0.00024185        0.00030439        0.00115982        0.00000079        0.00001561        0.00026937
       2         -1.021355        2.000000        0.04545058        0.00073888        0.03149101        0.00443782        0.00016827        0.00003788        0.00073954        0.00084510        0.00002069
       3         -0.849683        2.000000        0.27421234        0.01958034        0.01942393        0.00056224        0.00158883        0.00011263        0.00014154        0.00100868        0.00002089
       4         -0.839648        2.000000        0.27332211        0.00862556        0.02423064        0.00136387        0.00230367        0.00029898        0.00013528        0.00017031        0.00004756
       5         -0.837782        2.000000        0.32295818        0.00152070        0.01795845        0.00143430        0.00020312        0.00022430        0.00060983        0.00240668        0.00006245
       6         -0.834387        2.000000        0.30783811        0.01461349        0.00982345        0.00182477        0.00165894        0.00076186        0.00035141        0.00018361        0.00010282
       7         -0.815836        2.000000        0.01278692        0.00652908        0.00237194        0.00956005        0.00009840        0.00018280        0.00010317        0.00016376        0.00003156
       8         -0.767152        2.000000        0.05806581        0.01906388        0.00929961        0.02657605        0.00030869        0.00055053        0.00037783        0.00103878        0.00036149
       9         -0.761779        2.000000        0.06304978        0.01063051        0.01146722        0.01913303        0.00026398        0.00031981        0.00039426        0.00074409        0.00038028
      10         -0.709644        2.000000        0.02259786        0.01134102        0.01117860        0.01568589        0.00047783        0.00085241        0.00055595        0.00047192        0.00017374
      11         -0.690896        2.000000        0.00412748        0.00223363        0.00506071        0.00123534        0.00012545        0.00039508        0.00012699        0.00018592        0.00007375
      12         -0.678438        2.000000        0.00395492        0.00884444        0.00334205        0.01655528        0.00011978        0.00013618        0.00019723        0.00022972        0.00009036
      13         -0.672446        2.000000        0.00611945        0.00558189        0.00310208        0.01039673        0.00002606        0.00017740        0.00011344        0.00018020        0.00007875
      14         -0.660578        2.000000        0.02426017        0.04043540        0.02601433        0.05255844        0.00054835        0.00187912        0.00108262        0.00243672        0.00098685
      15         -0.638729        2.000000        0.03632453        0.01998826        0.04145677        0.02668645        0.00030548        0.00121762        0.00142557        0.00169228        0.00104514
      16         -0.597160        2.000000        0.02587963        0.01354310        0.03854964        0.00551883        0.00057882        0.00121241        0.00096301        0.00015863        0.00026183
      17         -0.580904        2.000000        0.00436232        0.00914430        0.01049800        0.00716788        0.00005125        0.00032392        0.00004500        0.00007159        0.00001518
      18         -0.557214        2.000000        0.00773908        0.02728357        0.04805495        0.08010556        0.00110915        0.00061217        0.00217932        0.00136046        0.00052886
      19         -0.550425        2.000000        0.01648574        0.05400990        0.04309354        0.04051850        0.00074176        0.00271262        0.00138335        0.00157176        0.00075908
      20         -0.543200        2.000000        0.03177125        0.02635200        0.02308778        0.01571868        0.00008338        0.00192562        0.00028251        0.00036505        0.00035031
      21         -0.536244        2.000000        0.02020928        0.03405730        0.02551294        0.06532577        0.00027769        0.00061702        0.00113784        0.00104784        0.00074923
      22         -0.502603        2.000000        0.00560795        0.02200133        0.09440825        0.02886494        0.00156939        0.00185840        0.00355788        0.00138356        0.00108202
      23         -0.494205        2.000000        0.01597186        0.09641914        0.03352165        0.03471681        0.00051204        0.00193540        0.00090118        0.00167903        0.00212062
      24         -0.479832        2.000000        0.00971545        0.08219696        0.08657881        0.08351408        0.00098922        0.00040878        0.00210139        0.00074029        0.00078788
      25         -0.470855        2.000000        0.00330380        0.04782357        0.07766615        0.10569420        0.00217627        0.00130218        0.00208539        0.00114075        0.00068750
      26         -0.466030        2.000000        0.00181128        0.06841124        0.01757152        0.08769020        0.00053519        0.00033015        0.00077186        0.00084324        0.00106087
      27         -0.462678        2.000000        0.00115321        0.12392494        0.04366864        0.06070769        0.00147510        0.00195570        0.00130636        0.00103821        0.00047160
      28         -0.451037        2.000000        0.02039049        0.02116360        0.15622122        0.01049805        0.00069280        0.00155878        0.00349346        0.00053769        0.00016271
      29         -0.449647        2.000000        0.01212724        0.01844401        0.07168330        0.03643932        0.00059811        0.00115395        0.00149831        0.00096120        0.00045021
      30         -0.445783        2.000000        0.00556839        0.20447284        0.05131772        0.05251897        0.00281062        0.00352114        0.00110234        0.00220108        0.00293930
      31         -0.426658        2.000000        0.00027316        0.02957661        0.03897683        0.03267905        0.00072834        0.00028420        0.00220456        0.00104537        0.00105933
      32         -0.416072        2.000000        0.00010383        0.03986395        0.01364721        0.05157914        0.00049188        0.00129616        0.00149540        0.00140558        0.00034957
      33         -0.405642        2.000000        0.00262707        0.07359678        0.01824487        0.07518694        0.00224791        0.00147544        0.00386740        0.00044499        0.00143149
      34         -0.398655        2.000000        0.00536744        0.06494321        0.01950275        0.06816471        0.00261169        0.00149909        0.00173366        0.00034771        0.00061891
      35         -0.390885        2.000000        0.00342691        0.00641950        0.00354288        0.00658755        0.00044154        0.00008706        0.00018170        0.00003319        0.00001962
      36         -0.388539        2.000000        0.00312405        0.00916609        0.00648529        0.01511406        0.00047839        0.00030472        0.00062447        0.00024442        0.00020017
      37         -0.377355        2.000000        0.00959927        0.02787042        0.02718569        0.03170301        0.00094691        0.00110465        0.00030036        0.00036687        0.00070489
      38         -0.371424        2.000000        0.00958590        0.00495322        0.04386421        0.00706432        0.00131524        0.00048623        0.00211300        0.00042222        0.00026553
      39         -0.363137        2.000000        0.00201116        0.01573568        0.01555071        0.02025156        0.00164917        0.00098467        0.00363800        0.00160489        0.00062381
      40         -0.359163        2.000000        0.00489897        0.04820957        0.00176260        0.02904906        0.00164088        0.00244062        0.00105044        0.00159911        0.00126316
      41         -0.352037        2.000000        0.00137150        0.00735419        0.00187103        0.01795515        0.00086359        0.00109993        0.00030218        0.00019416        0.00161098
      42         -0.351000        2.000000        0.00382165        0.01112961        0.01071522        0.04009426        0.00200579        0.00163866        0.00078654        0.00019370        0.00007849
      43         -0.345151        2.000000        0.00451835        0.01637288        0.00492050        0.04257343        0.00061110        0.00028876        0.00090063        0.00037337        0.00022075
      44         -0.333776        2.000000        0.00242312        0.03365284        0.02687902        0.03690381        0.00027221        0.00047388        0.00077893        0.00061447        0.00191961
      45         -0.332919        2.000000        0.00226747        0.05784059        0.00961797        0.03450557        0.00023648        0.00062047        0.00081468        0.00049425        0.00111821
      46         -0.326542        2.000000        0.00223388        0.03826251        0.04555510        0.06132078        0.00024596        0.00049675        0.00160064        0.00095532        0.00109487
      47         -0.314927        2.000000        0.00426713        0.00825321        0.01644242        0.00510559        0.00102299        0.00186281        0.00039373        0.00068952        0.00018955
      48         -0.306578        2.000000        0.00331621        0.01010153        0.01845040        0.00708229        0.00104188        0.00193805        0.00092544        0.00057945        0.00045137
      49         -0.300339        2.000000        0.00074233        0.05377136        0.04388956        0.04462744        0.00095970        0.00058508        0.00071688        0.00017929        0.00013124
      50         -0.298642        2.000000        0.00059848        0.03484203        0.06017490        0.09508607        0.00023701        0.00029814        0.00203997        0.00009004        0.00007395
      51         -0.292139        2.000000        0.00112624        0.11317782        0.04935518        0.11896720        0.00021753        0.00010984        0.00118328        0.00127026        0.00064754
      52         -0.275145        2.000000        0.00555099        0.06752726        0.04797535        0.12019505        0.00007958        0.00148230        0.00081157        0.00082526        0.00495387
      53         -0.256992        2.000000        0.00751095        0.14332256        0.04821165        0.18204068        0.00003056        0.00133131        0.00036894        0.00059012        0.00401349
      54         -0.245260        2.000000        0.09726788        0.20839473        0.33327607        0.01370335        0.00211030        0.00009078        0.00046667        0.00051594        0.00017203
      55         -0.235682        2.000000        0.09249727        0.07334950        0.47627042        0.00916467        0.00274018        0.00007411        0.00027633        0.00047207        0.00000643
      56         -0.228981        2.000000        0.00032727        0.00554026        0.00019781        0.00488401        0.00000918        0.00000161        0.00001427        0.00001025        0.00000765
      57         -0.222442        2.000000        0.00265804        0.07405516        0.03114382        0.09433973        0.00003544        0.00004400        0.00018967        0.00016228        0.00038605
      58         -0.217037        2.000000        0.00106926        0.01949011        0.02266686        0.02795944        0.00004250        0.00011278        0.00016330        0.00003895        0.00024277
      59         -0.210223        2.000000        0.00199339        0.02355652        0.01742386        0.04493613        0.00005804        0.00000950        0.00007132        0.00007694        0.00024784
      60         -0.178113        2.000000        0.00691865        0.08476587        0.04356802        0.13102744        0.00033774        0.00196087        0.00163886        0.00148779        0.00785778
      61         -0.162414        2.000000        0.00479887        0.07614416        0.04882535        0.11958175        0.00035913        0.00156159        0.00178097        0.00148031        0.00549957
      62         -0.089712        0.000000        0.00084222        0.05583707        0.04167960        0.07200911        0.00027606        0.00130774        0.00128743        0.00114198        0.00309739
      63         -0.044114        0.000000        0.00083515        0.01944836        0.01431418        0.02238513        0.00054288        0.00282199        0.00185346        0.00156326        0.00871007
      64         -0.028861        0.000000        0.00058199        0.00285786        0.00246807        0.00556451        0.00040483        0.00017269        0.00101947        0.00033857        0.00130608
      65         -0.018759        0.000000        0.00039963        0.01254082        0.00544866        0.01190224        0.00008151        0.00166766        0.00101069        0.00121631        0.00440882
      66         -0.007916        0.000000        0.00193615        0.01518985        0.01667882        0.02519093        0.00110689        0.00357734        0.00652776        0.00388394        0.00842456
      67         -0.002464        0.000000        0.00478694        0.01681325        0.01399841        0.01955877        0.00039251        0.00089800        0.00353122        0.00202443        0.00178267
      68          0.001205        0.000000        0.00302419        0.02999792        0.01346810        0.03521128        0.00182384        0.00042730        0.00326895        0.00227913        0.00432335
      69          0.038512        0.000000        0.01903512        0.04982823        0.01216453        0.04662831        0.00750056        0.00314695        0.00069763        0.00127606        0.00756715
      70          0.049079        0.000000        0.15713242        0.02240327        0.00974355        0.05470258        0.00817532        0.00119778        0.00110028        0.00661496        0.00266997
      71          0.050908        0.000000        0.17909299        0.00222261        0.01852573        0.04263400        0.00670235        0.00123771        0.00140547        0.00502963        0.00286672
      72          0.057454        0.000000        0.02721861        0.01798869        0.03016640        0.01830688        0.00248147        0.00209756        0.00465711        0.00343312        0.00287406
      73          0.069186        0.000000        0.00292545        0.02501025        0.01172160        0.03342068        0.00205236        0.00323720        0.00411670        0.00085505        0.00888054
      74          0.086948        0.000000        0.01449548        0.00714519        0.03135143        0.00570830        0.00485799        0.00267360        0.00586754        0.00398221        0.00166825
      75          0.095074        0.000000        0.02162628        0.02341858        0.01019048        0.01301793        0.00226997        0.00363113        0.00532973        0.00154752        0.00186618
      76          0.099671        0.000000        0.01280378        0.05147585        0.01174079        0.01932420        0.00934515        0.00804976        0.00441250        0.00413023        0.00248810
      77          0.106968        0.000000        0.00482311        0.05126935        0.03054607        0.00420174        0.00858305        0.00643121        0.00280512        0.00188758        0.00261183
      78          0.114671        0.000000        0.02033612        0.00689508        0.02529037        0.01749206        0.00359684        0.00214341        0.01040241        0.00171618        0.00129242
      79          0.116091        0.000000        0.02404023        0.01721211        0.03906610        0.02374484        0.00343435        0.00114217        0.01168941        0.00192210        0.00283220
      80          0.121925        0.000000        0.00949262        0.00529148        0.00998890        0.00847163        0.00415157        0.00132981        0.00234982        0.00331098        0.00079186
      81          0.127803        0.000000        0.01991198        0.01574479        0.01701053        0.01313058        0.00282217        0.00095968        0.00454921        0.00288256        0.00352795
      82          0.132982        0.000000        0.00551260        0.01400709        0.00774294        0.01793812        0.00031074        0.00007093        0.00518774        0.00488285        0.00390851
      83          0.140364        0.000000        0.07240544        0.01293038        0.01448897        0.00651510        0.00279906        0.00192294        0.00204606        0.00263514        0.00134623
      84          0.148452        0.000000        0.01442268        0.05482569        0.00743561        0.00798668        0.00822583        0.00417077        0.00345051        0.00175426        0.00295924
      85          0.158071        0.000000        0.01849318        0.02088019        0.02783342        0.01578256        0.00113823        0.00289165        0.01058458        0.00223286        0.00800864
      86          0.173454        0.000000        0.01233766        0.01067937        0.01130169        0.01109202        0.00496284        0.00313936        0.00688527        0.00466208        0.00402054
      87          0.174423        0.000000        0.01268864        0.01648211        0.00757018        0.00884292        0.01300077        0.00604344        0.00439151        0.00132328        0.00226392
      88          0.178981        0.000000        0.02327033        0.00841128        0.01053125        0.02339885        0.00723254        0.00177155        0.00191889        0.00474283        0.00113351
      89          0.186907        0.000000        0.01449221        0.01935527        0.01674538        0.00968764        0.00633672        0.00541452        0.00942595        0.00588762        0.00212986
      90          0.189962        0.000000        0.00337582        0.01168373        0.03486179        0.01579516        0.00221123        0.00493112        0.00713848        0.00660693        0.00193846
      91          0.193264        0.000000        0.00714887        0.01229579        0.01815843        0.03023356        0.00668290        0.00477591        0.00335663        0.01134391        0.00426030
      92          0.196359        0.000000        0.00947356        0.01169788        0.04882775        0.01491540        0.00368477        0.00199972        0.00105936        0.00093514        0.00077125
      93          0.199603        0.000000        0.00560305        0.01752043        0.01188471        0.00379099        0.00064017        0.00182235        0.00363465        0.00017619        0.00077941
      94          0.217995        0.000000        0.01444021        0.02184179        0.04038266        0.00783313        0.00326787        0.01817533        0.00770328        0.01097736        0.00473573
      95          0.220538        0.000000        0.02867600        0.01378749        0.02269434        0.01384182        0.00185036        0.00061032        0.00725199        0.00265829        0.00087306
      96          0.224915        0.000000        0.01387238        0.02312084        0.02192542        0.00904724        0.00378218        0.00956241        0.00666845        0.00518177        0.00359970
      97          0.230893        0.000000        0.03609793        0.00435762        0.03210232        0.02471298        0.00224619        0.00439397        0.00079171        0.00199332        0.00465291
      98          0.240868        0.000000        0.01240166        0.02196584        0.01461593        0.01841603        0.00591808        0.00518936        0.00611281        0.00527713        0.00541238
      99          0.248178        0.000000        0.00336712        0.01022154        0.00688858        0.01343024        0.00155352        0.00311863        0.00048058        0.00499235        0.00170708
     100          0.252180        0.000000        0.00191724        0.03747641        0.02934863        0.02760566        0.00039653        0.00095297        0.00380159        0.00102636        0.00204672
     101          0.256906        0.000000        0.00206714        0.01642459        0.01050263        0.03521487        0.00564187        0.00189152        0.00209808        0.00242561        0.00065760
     102          0.269829        0.000000        0.00704294        0.05735238        0.04325652        0.09437350        0.00024852        0.00454305        0.00250345        0.00082936        0.00321439
     103          0.273425        0.000000        0.00298795        0.06312705        0.02238727        0.04375229        0.00312408        0.00608460        0.00608997        0.01090139        0.00727441
     104          0.275876        0.000000        0.00362246        0.03052635        0.03186472        0.04376783        0.00697709        0.01100248        0.00683183        0.00610458        0.00354681
     105          0.288969        0.000000        0.00523803        0.04948479        0.04567981        0.08019725        0.00336809        0.00363502        0.01557637        0.00353112        0.00304875
     106          0.290675        0.000000        0.00238439        0.02324039        0.05232726        0.02084869        0.00074022        0.01939677        0.02263841        0.01536084        0.00846481
     107          0.297244        0.000000        0.00538709        0.03396201        0.05390833        0.04106213        0.00103470        0.00900821        0.01852488        0.00736472        0.00609272
     108          0.307887        0.000000        0.01836178        0.00660448        0.03480518        0.01569360        0.00594902        0.00142424        0.00864458        0.00356028        0.00102058
     109          0.314114        0.000000        0.02971431        0.03793211        0.09790503        0.01619231        0.00439286        0.00986412        0.00226373        0.00081745        0.00288542
     110          0.318161        0.000000        0.03367519        0.06036359        0.12204272        0.00553993        0.00890328        0.00453682        0.01197835        0.00243669        0.00212072
     111          0.322836        0.000000        0.00861550        0.06585458        0.08141438        0.03199812        0.00369147        0.00533894        0.00906420        0.00525253        0.00433919
