# Projected DOS for atomic kind N at iteration step i = 0, E(Fermi) =    -0.156719 a.u.
#     MO Eigenvalue [a.u.]      Occupation                 s                py                pz                px               d-2               d-1                d0               d+1               d+2
       1         -1.031379        2.000000        0.03449133        0.01526885        0.01522567        0.00038735        0.00028123        0.00090700        0.00002257        0.00000211        0.00018749
       2         -1.023960        2.000000        0.04231618        0.00107728        0.03014834        0.00317470        0.00017804        0.00005927        0.00069872        0.00063692        0.00000349
       3         -0.854953        2.000000        0.32050443        0.00005110        0.01731222        0.00630615        0.00034140        0.00004045        0.00174585        0.00254913        0.00010076
       4         -0.847212        2.000000        0.32643648        0.02108780        0.00431103        0.00075039        0.00175832        0.00162878        0.00003113        0.00000298        0.00013974
       5         -0.839931        2.000000        0.28022086        0.00350562        0.03258493        0.00129551        0.00245802        0.00006601        0.00000624        0.00032095        0.00004303
       6         -0.829493        2.000000        0.28676021        0.01689788        0.02432478        0.00010734        0.00183203        0.00018274        0.00002338        0.00058392        0.00001039
       7         -0.808067        2.000000        0.01396664        0.00695972        0.00400869        0.01019833        0.00002477        0.00019623        0.00013264        0.00024565        0.00004615
       8         -0.760642        2.000000        0.04422881        0.01429756        0.01381456        0.02223481        0.00036836        0.00043687        0.00026005        0.00075812        0.00042545
       9         -0.752925        2.000000        0.04914212        0.01878656        0.00968625        0.01635765        0.00009034        0.00058418        0.00016621        0.00088409        0.00036569
      10         -0.706702        2.000000        0.02631425        0.01257292        0.01416828        0.01570001        0.00039638        0.00066607        0.00062896        0.00052763        0.00024191
      11         -0.681916        2.000000        0.00465661        0.00480650        0.00388232        0.00200673        0.00006219        0.00044616        0.00007935        0.00015937        0.00008504
      12         -0.673477        2.000000        0.00821438        0.01174029        0.00360021        0.01457125        0.00011855        0.00016499        0.00015487        0.00023768        0.00018831
      13         -0.668997        2.000000        0.01319733        0.01577419        0.00595206        0.01905740        0.00009093        0.00031870        0.00016199        0.00046542        0.00036879
      14         -0.658181        2.000000        0.01799439        0.02854450        0.02797580        0.03437353        0.00048643        0.00147177        0.00081652        0.00205257        0.00090897
      15         -0.632900        2.000000        0.03546348        0.02050725        0.04924317        0.01776037        0.00031273        0.00134309        0.00086680        0.00147967        0.00115855
      16         -0.593019        2.000000        0.02840061        0.01818114        0.05503313        0.00555468        0.00072523        0.00094139        0.00107576        0.00026360        0.00043788
      17         -0.575902        2.000000        0.00750862        0.01343435        0.01790676        0.01047816        0.00021358        0.00041689        0.00016662        0.00005166        0.00001857
      18         -0.558361        2.000000        0.00578518        0.05990890        0.02584148        0.07578903        0.00047854        0.00074362        0.00076631        0.00115189        0.00109150
      19         -0.549292        2.000000        0.02136563        0.04131264        0.07433325        0.04079152        0.00077271        0.00165768        0.00157879        0.00183558        0.00111060
      20         -0.541587        2.000000        0.03527830        0.01023042        0.03392440        0.00346809        0.00020398        0.00195900        0.00075144        0.00013853        0.00014334
      21         -0.537112        2.000000        0.01461763        0.06673950        0.02466642        0.06178394        0.00016949        0.00073114        0.00063919        0.00090740        0.00114514
      22         -0.506989        2.000000        0.00319431        0.02940588        0.10701187        0.03924482        0.00113256        0.00161362        0.00182591        0.00108374        0.00173951
      23         -0.493715        2.000000        0.01767245        0.08047719        0.04462405        0.03336290        0.00037735        0.00225791        0.00154246        0.00169639        0.00097896
      24         -0.481785        2.000000        0.01340866        0.10960594        0.06302338        0.12541611        0.00041982        0.00122340        0.00252374        0.00126853        0.00118554
      25         -0.479340        2.000000        0.00797272        0.12660981        0.04010254        0.09079924        0.00093712        0.00139042        0.00112395        0.00065941        0.00120257
      26         -0.469342        2.000000        0.00207206        0.03180156        0.02957934        0.04474890        0.00044802        0.00037045        0.00056712        0.00045013        0.00056009
      27         -0.461661        2.000000        0.00212327        0.10953714        0.10061519        0.04862566        0.00083778        0.00379120        0.00198937        0.00141711        0.00048341
      28         -0.451959        2.000000        0.01506938        0.06598165        0.06482100        0.00542966        0.00042865        0.00357255        0.00071628        0.00054282        0.00050217
      29         -0.440730        2.000000        0.00802433        0.06390774        0.04318958        0.03901306        0.00042314        0.00232032        0.00078087        0.00155166        0.00082090
      30         -0.437971        2.000000        0.00731838        0.04042255        0.17133493        0.07138761        0.00115819        0.00133152        0.00598713        0.00253229        0.00064747
      31         -0.419809        2.000000        0.00042511        0.02667756        0.02223872        0.03363698        0.00044939        0.00019686        0.00165094        0.00129125        0.00093640
      32         -0.415519        2.000000        0.00008929        0.03515948        0.01233823        0.05070791        0.00051018        0.00112516        0.00118579        0.00154891        0.00026517
      33         -0.408070        2.000000        0.00407029        0.07712091        0.01256917        0.04477904        0.00163235        0.00358748        0.00283841        0.00032745        0.00048601
      34         -0.402365        2.000000        0.00922551        0.03736506        0.01954940        0.05114642        0.00136729        0.00120417        0.00219959        0.00052564        0.00046332
      35         -0.392991        2.000000        0.00373831        0.01141420        0.00442525        0.02870715        0.00079089        0.00054328        0.00103200        0.00016994        0.00013353
      36         -0.390670        2.000000        0.00146050        0.00879712        0.00414119        0.01748878        0.00011989        0.00030167        0.00011940        0.00040682        0.00010851
      37         -0.376843        2.000000        0.01115894        0.03034818        0.03018037        0.02100531        0.00103882        0.00168293        0.00088167        0.00089547        0.00075388
      38         -0.362707        2.000000        0.00381595        0.04602033        0.00464377        0.02143844        0.00129646        0.00476909        0.00215419        0.00188986        0.00065278
      39         -0.360544        2.000000        0.00403386        0.00247241        0.03083219        0.00293646        0.00110414        0.00090560        0.00217434        0.00071387        0.00029317
      40         -0.349977        2.000000        0.00191903        0.00593751        0.02531973        0.01080537        0.00219169        0.00133179        0.00544635        0.00163991        0.00052237
      41         -0.348632        2.000000        0.00278049        0.02480420        0.00464350        0.02903292        0.00016179        0.00046370        0.00021458        0.00048837        0.00011762
      42         -0.346775        2.000000        0.00157714        0.00995190        0.01885637        0.06704843        0.00036390        0.00210651        0.00075743        0.00038696        0.00109002
      43         -0.340034        2.000000        0.00213575        0.01250080        0.00550462        0.05819935        0.00091084        0.00302204        0.00126042        0.00015478        0.00088619
      44         -0.336918        2.000000        0.00350328        0.04779765        0.00783066        0.06426543        0.00034347        0.00044122        0.00020423        0.00045712        0.00035643
      45         -0.336405        2.000000        0.00242418        0.05151396        0.02562188        0.04749094        0.00094171        0.00067034        0.00068989        0.00083529        0.00130679
      46         -0.327530        2.000000        0.00305159        0.09596680        0.01663760        0.05764825        0.00119149        0.00068396        0.00020866        0.00079034        0.00153485
      47         -0.310652        2.000000        0.00313593        0.00496058        0.01470785        0.00819974        0.00044416        0.00099026        0.00108490        0.00061556        0.00027440
      48         -0.303903        2.000000        0.00333837        0.01010030        0.02567619        0.00663416        0.00054211        0.00128548        0.00258855        0.00070061        0.00042899
      49         -0.295481        2.000000        0.00113751        0.05109840        0.00875307        0.01306274        0.00109631        0.00141748        0.00054820        0.00054658        0.00010781
      50         -0.294807        2.000000        0.00069416        0.07458862        0.02768121        0.13660520        0.00066862        0.00056170        0.00056229        0.00097782        0.00077432
      51         -0.290080        2.000000        0.00161222        0.06665990        0.10308499        0.11729086        0.00034997        0.00023695        0.00259400        0.00037890        0.00030376
      52         -0.275936        2.000000        0.00283067        0.06327161        0.02305904        0.10746123        0.00013173        0.00145662        0.00037463        0.00040187        0.00519856
      53         -0.254640        2.000000        0.00540365        0.09741161        0.07398596        0.17944466        0.00011439        0.00094988        0.00022021        0.00031933        0.00361495
      54         -0.243981        2.000000        0.10451474        0.20342534        0.32569247        0.01953975        0.00223737        0.00015630        0.00024560        0.00071524        0.00004197
      55         -0.239771        2.000000        0.09859878        0.07808133        0.47078020        0.01173232        0.00270350        0.00006752        0.00020464        0.00057192        0.00000243
      56         -0.223546        2.000000        0.00053505        0.00104772        0.00188698        0.00082911        0.00001428        0.00000031        0.00000354        0.00000252        0.00000372
      57         -0.218647        2.000000        0.00191469        0.09370298        0.03224730        0.13544360        0.00007782        0.00010518        0.00039141        0.00016688        0.00042244
      58         -0.210256        2.000000        0.00036713        0.01490310        0.00492540        0.01766971        0.00003483        0.00006543        0.00007144        0.00002038        0.00036564
      59         -0.207768        2.000000        0.00113364        0.01906010        0.00721036        0.03525576        0.00006932        0.00003162        0.00005462        0.00004508        0.00025058
      60         -0.174618        2.000000        0.00410297        0.07329164        0.02648459        0.12980755        0.00070814        0.00195265        0.00142517        0.00117683        0.00874417
      61         -0.156719        2.000000        0.00235017        0.06838732        0.03313268        0.12952764        0.00063657        0.00160809        0.00159327        0.00123753        0.00593902
      62         -0.090040        0.000000        0.00051177        0.06286793        0.03396664        0.08878493        0.00038913        0.00103453        0.00121903        0.00130918        0.00252765
      63         -0.046062        0.000000        0.00046589        0.02854256        0.01302439        0.03453294        0.00048296        0.00239225        0.00145047        0.00148904        0.00726882
      64         -0.028499        0.000000        0.00014655        0.00184870        0.00136601        0.00290688        0.00027203        0.00044153        0.00048844        0.00021354        0.00077688
      65         -0.020935        0.000000        0.00053242        0.01060335        0.00441016        0.01178039        0.00064617        0.00065659        0.00053948        0.00063988        0.00351535
      66         -0.003795        0.000000        0.00637047        0.00041987        0.00082080        0.00400338        0.00080101        0.00050104        0.00059253        0.00061146        0.00055839
      67         -0.002960        0.000000        0.00324273        0.03282782        0.00674434        0.03508199        0.00354794        0.00097906        0.00427174        0.00377311        0.01357805
      68          0.002655        0.000000        0.00353615        0.02751684        0.02131936        0.05334276        0.00218249        0.00524659        0.00851319        0.00310342        0.00599496
      69          0.038366        0.000000        0.06171231        0.03178153        0.02858796        0.03588825        0.00688028        0.00188934        0.00202175        0.00158209        0.00851433
      70          0.041851        0.000000        0.17006456        0.00328826        0.06729548        0.01068049        0.00564265        0.00106021        0.00425768        0.00455264        0.00580077
      71          0.043419        0.000000        0.11589989        0.02593845        0.06134273        0.02330312        0.00313075        0.00238692        0.00425898        0.00584377        0.00259887
      72          0.054085        0.000000        0.01655419        0.00863386        0.01518198        0.01693110        0.00435171        0.00240446        0.00617398        0.00335690        0.00073956
      73          0.063612        0.000000        0.00207863        0.03709218        0.01996551        0.03903511        0.00062571        0.00323491        0.00194555        0.00390399        0.00771990
      74          0.084888        0.000000        0.00439894        0.09882306        0.01299464        0.01401132        0.00676079        0.02783785        0.00547669        0.00238419        0.00079255
      75          0.094860        0.000000        0.02060156        0.02969144        0.03247946        0.04494486        0.01020859        0.00409091        0.01653406        0.00042932        0.00153263
      76          0.100401        0.000000        0.01600284        0.00587705        0.03049487        0.01126054        0.00249064        0.00162001        0.00770344        0.00140839        0.00056544
      77          0.108292        0.000000        0.01203266        0.02379086        0.00877407        0.00480970        0.00348348        0.00583605        0.00256059        0.00288057        0.00232825
      78          0.109110        0.000000        0.00891612        0.03264664        0.01746646        0.02482026        0.00066831        0.00203847        0.00679772        0.00100763        0.00254260
      79          0.118328        0.000000        0.00756516        0.01169564        0.00394529        0.00395066        0.00294168        0.00118655        0.00090386        0.00254455        0.00147815
      80          0.122919        0.000000        0.00963070        0.01785143        0.00779902        0.02120260        0.00448869        0.00040290        0.00060927        0.00554491        0.00870647
      81          0.126276        0.000000        0.03861408        0.01477880        0.00656439        0.01912201        0.00096618        0.00051296        0.00114960        0.00403228        0.00193903
      82          0.133098        0.000000        0.01062899        0.01650567        0.00209947        0.01982834        0.00149566        0.00260508        0.00686700        0.00609644        0.00173233
      83          0.144345        0.000000        0.11056606        0.00935798        0.01470604        0.00563588        0.00262730        0.00144480        0.00192993        0.00168065        0.00134562
      84          0.157901        0.000000        0.00552012        0.00715810        0.02303834        0.02130964        0.00140464        0.00034025        0.01537586        0.00015996        0.00156735
      85          0.160308        0.000000        0.00254004        0.02338935        0.00899233        0.00460111        0.00360382        0.01421084        0.00989033        0.00048974        0.00005264
      86          0.169942        0.000000        0.00556950        0.00842190        0.00619697        0.01201492        0.00310964        0.00420691        0.01334759        0.00493146        0.00248318
      87          0.173705        0.000000        0.01391569        0.01704119        0.00202524        0.01362038        0.00301615        0.00284689        0.00276545        0.00391756        0.00162856
      88          0.181382        0.000000        0.03602106        0.02045247        0.01686392        0.03991344        0.00391246        0.00383401        0.00096129        0.01003171        0.00480137
      89          0.189498        0.000000        0.00387444        0.01566083        0.02299833        0.00444173        0.00310880        0.01069611        0.00091410        0.00358756        0.00321918
      90          0.191671        0.000000        0.00566106        0.03369463        0.02429972        0.01236212        0.00196943        0.00496609        0.00316349        0.00318486        0.00214765
      91          0.195330        0.000000        0.00720803        0.00503631        0.04923346        0.00982782        0.00164393        0.00289893        0.00178867        0.00685106        0.00018478
      92          0.197940        0.000000        0.00667989        0.02106422        0.02853243        0.02269109        0.01100771        0.00232916        0.00535031        0.00257704        0.00163633
      93          0.210080        0.000000        0.03033615        0.01042320        0.02643829        0.00592165        0.00054998        0.00283587        0.00231941        0.00129975        0.00042690
      94          0.212257        0.000000        0.01157603        0.00780863        0.03117782        0.00639735        0.00015239        0.01254345        0.00156433        0.00304535        0.00131027
      95          0.217917        0.000000        0.01903445        0.02326475        0.01739913        0.00995129        0.00108463        0.00468158        0.00363763        0.00227597        0.00182517
      96          0.227640        0.000000        0.03234876        0.02941662        0.01521819        0.00711198        0.00102312        0.00150223        0.00587803        0.00314756        0.00097225
      97          0.230957        0.000000        0.01142552        0.00851641        0.01401917        0.00787205        0.00248826        0.00265574        0.00603851        0.00547314        0.00162902
      98          0.232863        0.000000        0.00688018        0.01985710        0.00849334        0.02173921        0.00610484        0.00517170        0.00444935        0.00556323        0.00356039
      99          0.247022        0.000000        0.00236609        0.00668161        0.01410994        0.01180960        0.00879187        0.00236222        0.00647052        0.00304485        0.00180801
     100          0.259229        0.000000        0.00163047        0.02754125        0.00945946        0.06366480        0.00069068        0.00182955        0.00268010        0.00398822        0.00031350
     101          0.261509        0.000000        0.00510869        0.01135600        0.03585163        0.01931324        0.00053503        0.00113132        0.00415331        0.00452499        0.00227628
     102          0.267007        0.000000        0.00257601        0.04597321        0.01678540        0.01627863        0.00075123        0.00472688        0.00267409        0.00287739        0.00407859
     103          0.272890        0.000000        0.00736612        0.05959865        0.03558132        0.12290569        0.00081978        0.00432472        0.00250391        0.00610643        0.00358548
     104          0.279028        0.000000        0.00557897        0.05408499        0.05767621        0.02980667        0.00144719        0.01080762        0.00997734        0.00540840        0.00448996
     105          0.285011        0.000000        0.00605485        0.06086399        0.04125950        0.06623886        0.00192016        0.01609046        0.01099920        0.00929366        0.01697124
     106          0.286457        0.000000        0.00845535        0.01873083        0.06732539        0.02413798        0.00419430        0.01454116        0.01460169        0.01430459        0.01396132
     107          0.299143        0.000000        0.00348458        0.04316213        0.05230881        0.08391754        0.00045658        0.01025726        0.00315135        0.00908699        0.00694609
     108          0.310944        0.000000        0.00399065        0.01085506        0.04280464        0.02178655        0.00665563        0.00066365        0.00828759        0.00212801        0.00072919
     109          0.314740        0.000000        0.02205628        0.01773802        0.02960486        0.00566767        0.00787764        0.00899298        0.00484237        0.00575876        0.01115916
     110          0.318355        0.000000        0.04469720        0.02663847        0.08898219        0.01136211        0.00864456        0.00455517        0.00357361        0.00178256        0.00564387
     111          0.327280        0.000000        0.03115470        0.03000068        0.03086807        0.04070259        0.00474528        0.00055348        0.00296987        0.00427378        0.00322410
