# Projected DOS for atomic kind S at iteration step i = 0, E(Fermi) =    -0.164373 a.u.
#     MO Eigenvalue [a.u.]      Occupation                 s                py                pz                px               d-2               d-1                d0               d+1               d+2
       1         -1.016958        2.000000        0.00127175        0.00071398        0.00054143        0.00217052        0.00002708        0.00000569        0.00000003        0.00008320        0.00002500
       2         -1.013327        2.000000        0.00215442        0.00327547        0.00004525        0.00339594        0.00019373        0.00002987        0.00003091        0.00000020        0.00000424
       3         -0.847057        2.000000        0.00001385        0.00000087        0.00000158        0.00000286        0.00000008        0.00000000        0.00000009        0.00000000        0.00000001
       4         -0.844861        2.000000        0.00005198        0.00000256        0.00000448        0.00000006        0.00000410        0.00000007        0.00000019        0.00000212        0.00000026
       5         -0.843673        2.000000        0.00460605        0.00006527        0.00174050        0.00065517        0.00002905        0.00001473        0.00000886        0.00009080        0.00000360
       6         -0.839763        2.000000        0.00131871        0.00045775        0.00061953        0.00000272        0.00000450        0.00005304        0.00000058        0.00000445        0.00001649
       7         -0.817357        2.000000        0.15184609        0.01009265        0.02926623        0.00262071        0.00109513        0.00190161        0.00016370        0.00129983        0.00001018
       8         -0.764746        2.000000        0.00035304        0.00238911        0.00048513        0.00456654        0.00005846        0.00008520        0.00008008        0.00041119        0.00016349
       9         -0.759037        2.000000        0.00393344        0.00108333        0.00048594        0.00017750        0.00000336        0.00023959        0.00004030        0.00000165        0.00004951
      10         -0.708011        2.000000        0.00116859        0.02355868        0.00157183        0.03516229        0.00057432        0.00178754        0.00047180        0.00383510        0.00208528
      11         -0.684499        2.000000        0.07092234        0.00247185        0.00304832        0.00012139        0.00121844        0.00055227        0.00058827        0.00005736        0.00018171
      12         -0.675076        2.000000        0.00033674        0.00013208        0.00001559        0.00005592        0.00000272        0.00006257        0.00000047        0.00005459        0.00004210
      13         -0.671622        2.000000        0.03084448        0.00037964        0.00085615        0.00008374        0.00024910        0.00005135        0.00013128        0.00000639        0.00000322
      14         -0.662569        2.000000        0.10000062        0.00102897        0.00275642        0.00023197        0.00000516        0.00004995        0.00003601        0.00000586        0.00000191
      15         -0.640305        2.000000        0.00013245        0.00546294        0.00017703        0.00753239        0.00017136        0.00078704        0.00015406        0.00173096        0.00097907
      16         -0.595758        2.000000        0.03666513        0.00068909        0.00160161        0.00027672        0.00111683        0.00018824        0.00065097        0.00000699        0.00001443
      17         -0.577146        2.000000        0.00046042        0.00209490        0.00010815        0.00271560        0.00000168        0.00001706        0.00000125        0.00003733        0.00003042
      18         -0.555857        2.000000        0.00005895        0.00004641        0.00074770        0.00051509        0.00001150        0.00000220        0.00000512        0.00000195        0.00000091
      19         -0.549423        2.000000        0.00054490        0.00181400        0.00008141        0.00211351        0.00009638        0.00012304        0.00005451        0.00036869        0.00021643
      20         -0.540775        2.000000        0.00581276        0.00011952        0.00087529        0.00037926        0.00014386        0.00003595        0.00006429        0.00003591        0.00002951
      21         -0.537365        2.000000        0.00004637        0.00202365        0.00002624        0.00187125        0.00000414        0.00008549        0.00000035        0.00008469        0.00003756
      22         -0.499879        2.000000        0.02826574        0.00068735        0.01322610        0.00537967        0.00000092        0.00005140        0.00012982        0.00039446        0.00002370
      23         -0.494858        2.000000        0.00151934        0.03296498        0.00009349        0.03523601        0.00014804        0.00184589        0.00011457        0.00237840        0.00150374
      24         -0.481840        2.000000        0.00146031        0.00107808        0.00431923        0.00042573        0.00052655        0.00041404        0.00047718        0.00000025        0.00008506
      25         -0.475269        2.000000        0.00050294        0.00416972        0.00005685        0.00217992        0.00001675        0.00052657        0.00003895        0.00049442        0.00025928
      26         -0.469098        2.000000        0.05824613        0.01496112        0.02991271        0.00085681        0.00000590        0.00203479        0.00071065        0.00033628        0.00011700
      27         -0.466348        2.000000        0.00473806        0.00371438        0.00511456        0.01554046        0.00032736        0.00011015        0.00056987        0.00220312        0.00067397
      28         -0.451195        2.000000        0.00039265        0.00323408        0.00046555        0.00231820        0.00044731        0.00079337        0.00042663        0.00013737        0.00027992
      29         -0.441500        2.000000        0.00054110        0.00016205        0.00220743        0.00230495        0.00010086        0.00000510        0.00014174        0.00009964        0.00000616
      30         -0.440274        2.000000        0.00008581        0.00148971        0.00001922        0.00113583        0.00003344        0.00001065        0.00004517        0.00002114        0.00000632
      31         -0.415949        2.000000        0.00068480        0.00609332        0.00536542        0.00336297        0.00032404        0.00009555        0.00033975        0.00000139        0.00003629
      32         -0.412663        2.000000        0.00011149        0.00089344        0.00026146        0.00054624        0.00001560        0.00004239        0.00001811        0.00004828        0.00076200
      33         -0.408761        2.000000        0.00009666        0.01305082        0.00014495        0.02283871        0.00024252        0.00184105        0.00014790        0.00417233        0.00178684
      34         -0.400475        2.000000        0.00346477        0.00081417        0.00018204        0.00004836        0.00009824        0.00001758        0.00000067        0.00026876        0.00002225
      35         -0.394167        2.000000        0.00015367        0.00021600        0.00028321        0.00285646        0.00000580        0.00000458        0.00004099        0.00001942        0.00003398
      36         -0.391372        2.000000        0.00076041        0.00024109        0.00096063        0.00012134        0.00011377        0.00000555        0.00000611        0.00000834        0.00001320
      37         -0.379091        2.000000        0.00003673        0.01513003        0.00080389        0.04505480        0.00021791        0.00044714        0.00000868        0.00145024        0.00090140
      38         -0.369195        2.000000        0.00274158        0.00175979        0.01483067        0.00266463        0.00107823        0.00014863        0.00007568        0.00002635        0.00000179
      39         -0.363246        2.000000        0.00157831        0.00025664        0.00036954        0.00011663        0.00092196        0.00001954        0.00025705        0.00026704        0.00008978
      40         -0.358095        2.000000        0.00567984        0.00723283        0.01244362        0.00156218        0.00158259        0.00116911        0.00000020        0.00079145        0.00077038
      41         -0.352871        2.000000        0.00107467        0.02184772        0.01415265        0.07714153        0.00031776        0.00001747        0.00328641        0.00160529        0.00000005
      42         -0.349391        2.000000        0.00487640        0.06696575        0.00551393        0.01260140        0.00026743        0.00071719        0.00044962        0.00045917        0.00062929
      43         -0.343664        2.000000        0.00030064        0.00011987        0.01060843        0.00763491        0.00007198        0.00001461        0.00023977        0.00020229        0.00009983
      44         -0.340332        2.000000        0.00024907        0.03760917        0.00475258        0.02497165        0.00007369        0.00014305        0.00032975        0.00009759        0.00013490
      45         -0.334771        2.000000        0.00001987        0.00672497        0.00854658        0.01209836        0.00017826        0.00023522        0.00099399        0.00004898        0.00017555
      46         -0.325615        2.000000        0.00191342        0.03110274        0.00002283        0.00258321        0.00001096        0.00014754        0.00053087        0.00015560        0.00024701
      47         -0.313365        2.000000        0.03310947        0.04156272        0.20202879        0.01533230        0.00120422        0.00032108        0.00000899        0.00005452        0.00000073
      48         -0.304267        2.000000        0.00007260        0.00114281        0.00089460        0.00233024        0.00003948        0.00034978        0.00003851        0.00081128        0.00028757
      49         -0.298263        2.000000        0.03905054        0.03245953        0.16031828        0.01384412        0.00250520        0.00000829        0.00008978        0.00135703        0.00031143
      50         -0.295691        2.000000        0.00096838        0.00003075        0.00626723        0.00008106        0.00010444        0.00004442        0.00000340        0.00000162        0.00039045
      51         -0.293899        2.000000        0.00005183        0.00401130        0.00104486        0.00279186        0.00000460        0.00000053        0.00000155        0.00000184        0.00000023
      52         -0.277091        2.000000        0.00001480        0.00001359        0.00031657        0.00013625        0.00002051        0.00085479        0.00012582        0.00055371        0.00396126
      53         -0.258666        2.000000        0.00006083        0.00539221        0.00962799        0.00360356        0.00004514        0.00000560        0.00008906        0.00001113        0.00005018
      54         -0.241335        2.000000        0.00013512        0.00098059        0.00048595        0.00294661        0.00004810        0.00000927        0.00002930        0.00003501        0.00000537
      55         -0.236905        2.000000        0.00022446        0.00014205        0.00007312        0.00037524        0.00000648        0.00000057        0.00001982        0.00001875        0.00042679
      56         -0.227715        2.000000        0.00012588        0.17389689        0.09479289        0.17388090        0.00018600        0.00005632        0.00009703        0.00003766        0.00000193
      57         -0.221231        2.000000        0.00000453        0.00106678        0.00076026        0.00046988        0.00002622        0.00174211        0.00017289        0.00117659        0.00741206
      58         -0.210611        2.000000        0.00002154        0.00607784        0.00360240        0.00537799        0.00001057        0.00006746        0.00002113        0.00004988        0.00015067
      59         -0.206362        2.000000        0.00000524        0.00652328        0.00402271        0.00672016        0.00000010        0.00015063        0.00000646        0.00012324        0.00069345
      60         -0.179742        2.000000        0.00003144        0.00818668        0.00848157        0.00613792        0.00003161        0.00000471        0.00007565        0.00001515        0.00001740
      61         -0.164373        2.000000        0.00003802        0.00000353        0.00002264        0.00052679        0.00000427        0.00069684        0.00007539        0.00042371        0.00297156
      62         -0.090505        0.000000        0.00004980        0.04386419        0.03793712        0.03259820        0.00170187        0.00089082        0.00824531        0.00112629        0.00040331
      63         -0.047011        0.000000        0.00066895        0.00014298        0.00030418        0.00426710        0.00000056        0.00024909        0.00002252        0.00134088        0.00000952
      64         -0.028583        0.000000        0.00000288        0.00565956        0.00285757        0.00085819        0.00025346        0.00112898        0.00347569        0.00000004        0.00032007
      65         -0.020873        0.000000        0.00003528        0.00212730        0.00046963        0.00516106        0.00017068        0.00132357        0.00004631        0.00276437        0.00025455
      66         -0.004188        0.000000        0.00001726        0.00038950        0.00275404        0.03722916        0.00235208        0.00233827        0.00212397        0.01392455        0.00203763
      67         -0.001271        0.000000        0.00082018        0.09533385        0.00239013        0.09231653        0.00538303        0.04700126        0.00758962        0.06319795        0.02397359
      68          0.004071        0.000000        0.00100118        0.03698452        0.00013611        0.04483986        0.00379271        0.01120999        0.00087675        0.01952401        0.03244238
      69          0.036668        0.000000        0.00886909        0.01352001        0.00060211        0.01413008        0.00134569        0.00289936        0.01360201        0.00884108        0.00019638
      70          0.038579        0.000000        0.00164580        0.00030743        0.00035912        0.00278056        0.00004505        0.00000199        0.00024677        0.00230060        0.00001610
      71          0.043238        0.000000        0.02163942        0.01052216        0.00719657        0.00840775        0.00497718        0.00749535        0.00659248        0.00492683        0.00141135
      72          0.049783        0.000000        0.04761237        0.00013530        0.06558767        0.00021912        0.03400404        0.00174598        0.00854990        0.00326147        0.00832002
      73          0.067912        0.000000        0.00734989        0.00350857        0.00807935        0.00022027        0.00411789        0.00131384        0.00198015        0.01166804        0.03252853
      74          0.087229        0.000000        0.00043830        0.00792399        0.00189718        0.00853283        0.00028432        0.00028926        0.00130304        0.00006565        0.00208305
      75          0.096555        0.000000        0.00330304        0.00180749        0.00982886        0.00216728        0.00340255        0.00147742        0.00007141        0.00663335        0.00005691
      76          0.099441        0.000000        0.00267051        0.00064653        0.00117529        0.00089346        0.00030948        0.00186083        0.00017183        0.00082564        0.00004213
      77          0.103648        0.000000        0.00007522        0.00320431        0.00003752        0.00248189        0.00036111        0.00002071        0.00000125        0.00010076        0.00035595
      78          0.105830        0.000000        0.00027781        0.00359594        0.00042466        0.00416771        0.00010179        0.00099887        0.00120820        0.00079830        0.00111700
      79          0.119805        0.000000        0.00343488        0.00076020        0.00219786        0.00271427        0.02935788        0.00500257        0.00718189        0.00000127        0.00047442
      80          0.122460        0.000000        0.00316899        0.01399049        0.03829258        0.00404488        0.00598735        0.03440416        0.00493992        0.01515473        0.00008848
      81          0.127429        0.000000        0.00029547        0.00016171        0.00006000        0.00093774        0.00094345        0.00120441        0.00001707        0.00000001        0.00004643
      82          0.136127        0.000000        0.00040896        0.00051651        0.00042656        0.00036302        0.01101679        0.00069780        0.00065246        0.00171595        0.00250210
      83          0.143178        0.000000        0.00040744        0.00021976        0.00263274        0.00497514        0.00001115        0.00081150        0.00262800        0.00350486        0.00261512
      84          0.155762        0.000000        0.00388347        0.00169450        0.00479214        0.00059224        0.00077776        0.00177474        0.00016097        0.00182500        0.00011666
      85          0.158257        0.000000        0.00079722        0.00183675        0.00395362        0.00012917        0.00145932        0.00246169        0.00064959        0.00096485        0.00000011
      86          0.169086        0.000000        0.00321500        0.00158671        0.00448432        0.00051348        0.02574059        0.00681833        0.00026447        0.00828753        0.00021220
      87          0.173030        0.000000        0.01648956        0.00120896        0.00176256        0.00025880        0.01083074        0.00018419        0.00166982        0.00052667        0.00007361
      88          0.176625        0.000000        0.01390165        0.00063627        0.00017018        0.00058401        0.00012589        0.00187502        0.00211226        0.00052285        0.00001955
      89          0.184637        0.000000        0.00031540        0.00071371        0.00023842        0.00094486        0.00183359        0.00020284        0.00038873        0.00439219        0.00170245
      90          0.187891        0.000000        0.01916370        0.00540784        0.03051242        0.00742361        0.00962180        0.01532564        0.01485388        0.00220327        0.00022439
      91          0.194293        0.000000        0.00655164        0.00125291        0.00272549        0.00023443        0.00001177        0.00026713        0.00010470        0.00037909        0.00000112
      92          0.195048        0.000000        0.00095243        0.00020707        0.00038717        0.00079190        0.00026920        0.00006223        0.00044708        0.00001135        0.00004457
      93          0.202537        0.000000        0.02432718        0.00615094        0.02247808        0.00326780        0.01929598        0.01708692        0.01739269        0.00200346        0.00123936
      94          0.210172        0.000000        0.00120852        0.00445220        0.01088912        0.00129385        0.00644721        0.00455880        0.00491152        0.00038677        0.00031770
      95          0.220329        0.000000        0.00271605        0.00079732        0.00571469        0.00113249        0.00345463        0.00819157        0.00570045        0.00094549        0.00033424
      96          0.224825        0.000000        0.01427887        0.00057956        0.00308210        0.00250405        0.00009441        0.00066199        0.00038377        0.00003843        0.00019625
      97          0.228659        0.000000        0.02715202        0.02233403        0.02458252        0.00944933        0.01625932        0.02942387        0.01754911        0.00304344        0.00268675
      98          0.238732        0.000000        0.02307132        0.00428804        0.01051235        0.00313367        0.00939007        0.00059973        0.00654725        0.00075318        0.00161069
      99          0.239995        0.000000        0.00066869        0.00380258        0.00312588        0.00369614        0.00244571        0.00015786        0.00414591        0.01762629        0.00159757
     100          0.249204        0.000000        0.00353769        0.00304786        0.03622390        0.00057255        0.00016587        0.00050795        0.00098004        0.00026295        0.00002386
     101          0.255976        0.000000        0.00057092        0.05679569        0.03368133        0.04988399        0.00064231        0.00407291        0.00955711        0.00125436        0.00028229
     102          0.270832        0.000000        0.00216420        0.00449306        0.01067615        0.00210881        0.00011559        0.00827541        0.00443546        0.00003171        0.00001447
     103          0.271868        0.000000        0.00012993        0.01490311        0.00022255        0.00307161        0.00119277        0.00328775        0.00000030        0.00059719        0.00121727
     104          0.276570        0.000000        0.00063650        0.00137886        0.00722031        0.00911218        0.00002228        0.00086718        0.00000581        0.00127890        0.00004469
     105          0.284302        0.000000        0.00029016        0.00816323        0.00553739        0.00927266        0.00004911        0.00779467        0.00344051        0.00014769        0.00006716
     106          0.285418        0.000000        0.00049594        0.00762759        0.00538423        0.00169445        0.00109796        0.00020068        0.00071753        0.00070920        0.00076670
     107          0.295288        0.000000        0.00076258        0.00660712        0.01768147        0.04885673        0.00463133        0.00061853        0.00245238        0.00532922        0.00010487
     108          0.307608        0.000000        0.00117735        0.02670069        0.01041965        0.00770359        0.00000815        0.00400967        0.00078907        0.00004617        0.00095031
     109          0.313900        0.000000        0.00117837        0.02906875        0.01883237        0.00825731        0.00036815        0.00420946        0.00130903        0.00128841        0.00222735
     110          0.318430        0.000000        0.00178274        0.06314977        0.00741562        0.01450768        0.00231452        0.01939037        0.02977390        0.01126999        0.00030856
     111          0.323868        0.000000        0.00005259        0.00463160        0.00056124        0.01095893        0.00009564        0.00563763        0.00143608        0.01018343        0.00263991
