# Projected DOS for atomic kind C at iteration step i = 0, E(Fermi) =    -0.157970 a.u.
#     MO Eigenvalue [a.u.]      Occupation                 s                py                pz                px               d-2               d-1                d0               d+1               d+2
       1         -1.045333        2.000000        0.15267707        0.04921743        0.11769669        0.13123582        0.02014620        0.01549436        0.00946562        0.03132785        0.00698385
       2         -1.030933        2.000000        0.15026668        0.14331969        0.07173797        0.07970488        0.03763203        0.02033990        0.01307437        0.00653080        0.00363496
       3         -0.841661        2.000000        0.17566165        0.06098488        0.04904971        0.03655447        0.00771310        0.00704389        0.01330468        0.02174565        0.00142408
       4         -0.837561        2.000000        0.13070436        0.12742179        0.11557968        0.06271590        0.03532649        0.01178095        0.01963166        0.02263601        0.00843901
       5         -0.834568        2.000000        0.17557141        0.03892973        0.05566123        0.04616117        0.01732595        0.02192573        0.00572757        0.00273131        0.00315728
       6         -0.827346        2.000000        0.13465008        0.06487979        0.16849889        0.06450310        0.03393725        0.02476171        0.01864915        0.01477728        0.00440394
       7         -0.808598        2.000000        0.31226573        0.11711484        0.06479345        0.14306620        0.01449977        0.01020008        0.00248833        0.01241985        0.00120735
       8         -0.765805        2.000000        0.34373528        0.09617792        0.13800639        0.09832051        0.00815274        0.00785378        0.00434321        0.00747440        0.00349695
       9         -0.759323        2.000000        0.32417230        0.12245789        0.14253392        0.10261727        0.00805578        0.00670306        0.00519916        0.00952968        0.00324421
      10         -0.708906        2.000000        0.33978659        0.11524244        0.07163286        0.16361383        0.00658899        0.01132453        0.00754848        0.00877042        0.00563967
      11         -0.691474        2.000000        0.34095714        0.11298495        0.14252790        0.10005015        0.01159756        0.01369551        0.01272492        0.01100302        0.00588481
      12         -0.677706        2.000000        0.36936744        0.12903130        0.13335959        0.08396127        0.01420792        0.01918359        0.01648356        0.01469551        0.00614457
      13         -0.672569        2.000000        0.32999711        0.12870731        0.14688391        0.07743715        0.01779533        0.01705110        0.01696827        0.02079367        0.00936740
      14         -0.658359        2.000000        0.28429091        0.08499902        0.11443597        0.08096364        0.01276651        0.01898962        0.01357582        0.02591032        0.01417649
      15         -0.633046        2.000000        0.36235478        0.09412178        0.09204464        0.10284482        0.01399389        0.02093026        0.01858802        0.02487916        0.01253085
      16         -0.595763        2.000000        0.21312153        0.16985190        0.07797735        0.20639931        0.00582344        0.01245887        0.00833438        0.01577571        0.00822431
      17         -0.579743        2.000000        0.20647036        0.16879490        0.14148277        0.14736945        0.00551036        0.00507617        0.00618237        0.00654623        0.00268039
      18         -0.559460        2.000000        0.19336029        0.14125672        0.17441066        0.12399727        0.00233736        0.00330759        0.00293819        0.00367208        0.00134895
      19         -0.550180        2.000000        0.22016462        0.14678877        0.22635252        0.07330694        0.00515298        0.00546832        0.00396007        0.00489304        0.00300260
      20         -0.544240        2.000000        0.18498444        0.13166371        0.29706616        0.06833807        0.00503991        0.00638544        0.00516102        0.00817616        0.00420289
      21         -0.532820        2.000000        0.20569804        0.13413430        0.20478008        0.08687018        0.00956842        0.00841486        0.00725342        0.00211048        0.00125387
      22         -0.503864        2.000000        0.15270300        0.13114892        0.15954789        0.12837471        0.00544709        0.00791077        0.00568145        0.00671797        0.00286918
      23         -0.496313        2.000000        0.07721255        0.10963469        0.17298154        0.11240609        0.00837939        0.01129858        0.00531260        0.00606653        0.00301950
      24         -0.480824        2.000000        0.06125720        0.13648152        0.17645673        0.08007382        0.00663275        0.01104909        0.00693807        0.00713659        0.00279666
      25         -0.470591        2.000000        0.10318347        0.07742932        0.16725975        0.06759479        0.01033740        0.01419176        0.01315259        0.01127226        0.00442733
      26         -0.464608        2.000000        0.11138643        0.07307155        0.15452095        0.11011592        0.01336079        0.00967794        0.01557414        0.00942231        0.00365827
      27         -0.462022        2.000000        0.07990204        0.11431740        0.24112074        0.07422490        0.00763145        0.01186707        0.00697536        0.01151523        0.00560501
      28         -0.452824        2.000000        0.05689805        0.20430964        0.13613626        0.09879487        0.01652960        0.01013503        0.01673118        0.00734273        0.00407652
      29         -0.447936        2.000000        0.04489291        0.11108550        0.16091914        0.08354581        0.00948744        0.01452332        0.01169880        0.01019221        0.00430443
      30         -0.437377        2.000000        0.09738186        0.15507363        0.06450920        0.14514138        0.01281427        0.01697743        0.01360416        0.01025126        0.00678028
      31         -0.428765        2.000000        0.00107370        0.15605336        0.14812985        0.17695744        0.00614574        0.00840128        0.01618420        0.00277251        0.01485492
      32         -0.418408        2.000000        0.00102636        0.19842797        0.06687102        0.22258541        0.00420057        0.00472707        0.00457814        0.00831785        0.02608790
      33         -0.405175        2.000000        0.06202423        0.18411662        0.07733903        0.20127288        0.00999581        0.01483253        0.01013601        0.00748578        0.00455818
      34         -0.398507        2.000000        0.03515130        0.15187279        0.23251296        0.13091811        0.00535798        0.01095867        0.01137907        0.01683880        0.00780119
      35         -0.393280        2.000000        0.05626439        0.07284926        0.31759191        0.17986989        0.00903142        0.00388517        0.02807537        0.01607707        0.00425479
      36         -0.388876        2.000000        0.06171894        0.27420340        0.21555140        0.08166829        0.00388193        0.02635933        0.00606891        0.01033474        0.01384639
      37         -0.374512        2.000000        0.02795699        0.14476563        0.24212744        0.16427218        0.00681846        0.01582498        0.01526792        0.01734578        0.01112758
      38         -0.368448        2.000000        0.02891527        0.18963079        0.24695818        0.17184955        0.00544489        0.01369881        0.01511979        0.00983819        0.00437396
      39         -0.359950        2.000000        0.01717810        0.31138813        0.15446367        0.21659062        0.00985529        0.01097575        0.00749623        0.00406407        0.00396926
      40         -0.359295        2.000000        0.00904859        0.24074466        0.19258778        0.28811012        0.00876109        0.00958694        0.01153479        0.00991952        0.00414360
      41         -0.349385        2.000000        0.01594575        0.18905788        0.16139246        0.29842681        0.01160614        0.01623209        0.01696142        0.00458444        0.01288420
      42         -0.345243        2.000000        0.02420279        0.17795723        0.21369793        0.21983477        0.01644284        0.01480745        0.01592052        0.01013683        0.01135294
      43         -0.340767        2.000000        0.02261459        0.23948002        0.23282033        0.15006931        0.01287565        0.01865131        0.00765413        0.02562238        0.01447393
      44         -0.334557        2.000000        0.00285170        0.22473722        0.14289890        0.32014227        0.00643220        0.01038432        0.00691398        0.00745808        0.02472226
      45         -0.331962        2.000000        0.01692065        0.18325139        0.18910823        0.14215465        0.00820167        0.02025070        0.01251889        0.02588867        0.02211926
      46         -0.325404        2.000000        0.00589602        0.19610095        0.16083299        0.20646342        0.00505990        0.01547603        0.00927047        0.01651323        0.03238188
      47         -0.313622        2.000000        0.01703366        0.14362336        0.19325693        0.13048363        0.01374549        0.02072511        0.02303771        0.01332963        0.00427190
      48         -0.308331        2.000000        0.01445440        0.15130559        0.22055190        0.11464157        0.01327745        0.01991953        0.02726705        0.01795036        0.00859266
      49         -0.298132        2.000000        0.01882793        0.15588634        0.12787555        0.05849181        0.00562130        0.01692910        0.00849778        0.02238798        0.00860961
      50         -0.293858        2.000000        0.00303328        0.10486484        0.10155023        0.15634615        0.00920274        0.01054647        0.02804819        0.01161469        0.03015325
      51         -0.290341        2.000000        0.00106608        0.14450273        0.06773604        0.16913921        0.00720439        0.01762794        0.02386522        0.02198659        0.02126071
      52         -0.273975        2.000000        0.00106746        0.20856445        0.15414208        0.26165990        0.00616599        0.00944483        0.01898340        0.01455293        0.03396783
      53         -0.253959        2.000000        0.00117565        0.15584603        0.09557195        0.19438021        0.00669116        0.01019910        0.02208166        0.01733946        0.04247127
      54         -0.251111        2.000000        0.04964986        0.06942250        0.06293794        0.01354357        0.00695212        0.03863490        0.01105059        0.00176674        0.01030155
      55         -0.236374        2.000000        0.04675390        0.02532332        0.09103819        0.02120203        0.00815836        0.01457475        0.03594466        0.00475334        0.00074837
      56         -0.229963        2.000000        0.00138865        0.14393717        0.11820385        0.17180148        0.01602748        0.00818874        0.04270030        0.01252552        0.01861804
      57         -0.220991        2.000000        0.00084797        0.22838182        0.10056120        0.28225629        0.00549689        0.01797746        0.01858234        0.01428329        0.05537153
      58         -0.215314        2.000000        0.00062288        0.19239699        0.14201023        0.32265530        0.00966907        0.01328481        0.01819852        0.01251868        0.05154962
      59         -0.209449        2.000000        0.00068576        0.19905069        0.14360732        0.24814108        0.00906843        0.01509174        0.02491817        0.01042660        0.05228648
      60         -0.176561        2.000000        0.00089590        0.18500894        0.10564883        0.24759592        0.00689867        0.01011122        0.02336105        0.01579727        0.03766290
      61         -0.157970        2.000000        0.00074887        0.19470095        0.13019267        0.26506316        0.00664055        0.01231336        0.02330479        0.01499978        0.03955406
      62         -0.094108        0.000000        0.00128671        0.16849667        0.12875009        0.18968827        0.00747958        0.01920320        0.02155859        0.01339646        0.05866154
      63         -0.043262        0.000000        0.00184607        0.24138441        0.15073423        0.31472590        0.01469596        0.01875361        0.03305596        0.01870261        0.05635950
      64         -0.028610        0.000000        0.00197912        0.23847538        0.14658875        0.33118395        0.02193678        0.02185165        0.04481260        0.02957427        0.04542531
      65         -0.019216        0.000000        0.00142720        0.22929903        0.12379213        0.29621205        0.01470202        0.02196709        0.03525417        0.02375755        0.05347408
      66         -0.006757        0.000000        0.00773198        0.22202212        0.13283316        0.29314923        0.01130246        0.02595529        0.02356284        0.01526378        0.05557487
      67         -0.002345        0.000000        0.09697620        0.07113990        0.08920115        0.07869833        0.01227019        0.02369016        0.01608967        0.01454555        0.01058096
      68         -0.001674        0.000000        0.00335296        0.20033893        0.12844666        0.30228246        0.01714936        0.02004560        0.03381022        0.01668867        0.06053681
      69          0.035573        0.000000        0.01809597        0.17071963        0.12047388        0.16328925        0.01439790        0.01596029        0.03274166        0.02614110        0.03914283
      70          0.043301        0.000000        0.05401745        0.02465074        0.04903542        0.03364657        0.00320583        0.00678288        0.00755423        0.01597927        0.00331096
      71          0.053063        0.000000        0.03764259        0.06173133        0.04488438        0.04593189        0.00570136        0.02001480        0.00512634        0.01951257        0.00506950
      72          0.053686        0.000000        0.03906333        0.08259620        0.12108604        0.11223424        0.02567709        0.03347043        0.01401578        0.03852635        0.00903161
      73          0.067102        0.000000        0.00841033        0.24511195        0.15811263        0.24638486        0.01632656        0.00673813        0.03205635        0.01876041        0.02795225
      74          0.090976        0.000000        0.16177264        0.05519674        0.04487599        0.03945899        0.04126148        0.03862112        0.03968025        0.02584339        0.01981024
      75          0.093090        0.000000        0.06052155        0.08767193        0.10498457        0.05840133        0.03788326        0.05769917        0.02160011        0.03513192        0.02436605
      76          0.095097        0.000000        0.19232890        0.04917728        0.06483162        0.05275507        0.04184971        0.04095378        0.04378884        0.05494516        0.01183966
      77          0.100286        0.000000        0.08037449        0.06294876        0.05950032        0.05389235        0.03237272        0.02862995        0.02679544        0.00854046        0.00670042
      78          0.113103        0.000000        0.14579004        0.04611786        0.07792203        0.06148863        0.01645920        0.01957963        0.01545935        0.01914978        0.00662885
      79          0.114133        0.000000        0.18277407        0.06650613        0.10606684        0.07009240        0.03015113        0.02592867        0.02441448        0.02929247        0.01311224
      80          0.121230        0.000000        0.05376726        0.21183617        0.14180973        0.29464448        0.02437828        0.00929166        0.01905766        0.00881357        0.02175998
      81          0.123385        0.000000        0.25133040        0.07039563        0.07575062        0.12890366        0.03966634        0.03174253        0.00886108        0.04769673        0.00685654
      82          0.129012        0.000000        0.04119100        0.26611264        0.11032118        0.30917184        0.00979131        0.01645826        0.01942598        0.01694219        0.01982355
      83          0.135482        0.000000        0.22557053        0.07995024        0.06665574        0.08041125        0.03323709        0.02292331        0.01188610        0.03596828        0.01330870
      84          0.151232        0.000000        0.14578608        0.08914670        0.07685194        0.02709611        0.00914415        0.02591200        0.00522630        0.01475734        0.01585597
      85          0.157803        0.000000        0.11536905        0.03165903        0.12245722        0.03607144        0.00550219        0.01044205        0.02971408        0.02415568        0.00336486
      86          0.170474        0.000000        0.24418329        0.08411570        0.04305676        0.04587922        0.02320809        0.03349112        0.02918739        0.04108722        0.00770347
      87          0.174246        0.000000        0.31798634        0.05170277        0.03886810        0.04608560        0.04416614        0.03144639        0.02313268        0.02583239        0.00968581
      88          0.181901        0.000000        0.20769803        0.05990844        0.08074005        0.06770697        0.05823660        0.05629253        0.02305054        0.05689238        0.01491073
      89          0.187472        0.000000        0.37884997        0.02125241        0.06547044        0.03223589        0.06668375        0.01865879        0.02778361        0.05079859        0.00483955
      90          0.191328        0.000000        0.22348559        0.05888717        0.09069943        0.04795016        0.05920906        0.03349355        0.01880383        0.03013740        0.01221142
      91          0.193327        0.000000        0.28361674        0.05430985        0.07963426        0.02607770        0.05267754        0.04666512        0.01724767        0.03566484        0.01834664
      92          0.196103        0.000000        0.19892207        0.07064405        0.09596306        0.03958821        0.04980118        0.02875019        0.02024582        0.05797131        0.01310789
      93          0.198019        0.000000        0.26381099        0.04380655        0.10087772        0.03964645        0.05103528        0.05410100        0.02089717        0.04125343        0.00839115
      94          0.215368        0.000000        0.21883857        0.06849033        0.05654443        0.05763385        0.05828254        0.06050382        0.04700688        0.04907389        0.01085813
      95          0.218375        0.000000        0.22027884        0.04860142        0.09589899        0.06394954        0.04919772        0.02862366        0.02882121        0.04937919        0.00713869
      96          0.223022        0.000000        0.20201844        0.09249420        0.04820348        0.06647560        0.06066372        0.06525887        0.02933458        0.03132015        0.01434652
      97          0.227274        0.000000        0.18705446        0.06017874        0.08711378        0.05557409        0.06121524        0.01868187        0.02471206        0.03167837        0.00633430
      98          0.239812        0.000000        0.23354951        0.06747910        0.10304437        0.07014627        0.04740311        0.02486023        0.03064907        0.02660833        0.01671855
      99          0.250016        0.000000        0.20340641        0.07819667        0.08240395        0.06136828        0.03426792        0.05633829        0.02073227        0.04267006        0.01955210
     100          0.253437        0.000000        0.22972001        0.06089020        0.07545214        0.06024475        0.04279822        0.04862431        0.02585669        0.05079026        0.02372815
     101          0.255106        0.000000        0.02736657        0.21211894        0.14061923        0.21500117        0.00511901        0.00683505        0.00307921        0.00706891        0.00908824
     102          0.267353        0.000000        0.14772753        0.08723651        0.08750090        0.08682302        0.03200469        0.01936603        0.01728142        0.02537630        0.00962587
     103          0.272558        0.000000        0.08729189        0.10622510        0.12661731        0.18701720        0.01832653        0.04358382        0.00824347        0.02566880        0.01047449
     104          0.275407        0.000000        0.16531920        0.10743426        0.07122081        0.11607454        0.02576245        0.03198372        0.03198573        0.03195123        0.00981311
     105          0.283217        0.000000        0.11888631        0.11970842        0.07435786        0.07958690        0.06334344        0.04869747        0.02465272        0.02432123        0.01294884
     106          0.287188        0.000000        0.06836016        0.07053702        0.12226131        0.15204924        0.03500638        0.04018724        0.03681234        0.02491993        0.01364068
     107          0.298141        0.000000        0.03493554        0.14399025        0.07826890        0.11715154        0.02117022        0.02844041        0.02624389        0.02227541        0.00923336
     108          0.304879        0.000000        0.09752836        0.07592325        0.11060101        0.07647425        0.03342562        0.06310384        0.02560438        0.05758889        0.01404740
     109          0.311159        0.000000        0.12431148        0.09799397        0.09172795        0.04444241        0.05482103        0.05658747        0.02547548        0.03032268        0.01207879
     110          0.317340        0.000000        0.13450333        0.07557527        0.12670850        0.07059868        0.05304749        0.05597611        0.03336498        0.06389521        0.01216014
     111          0.319722        0.000000        0.08096059        0.07200148        0.14871023        0.06065245        0.05490671        0.02494821        0.07091081        0.03895534        0.00835614
