# Projected DOS for atomic kind N at iteration step i = 0, E(Fermi) =    -0.159275 a.u.
#     MO Eigenvalue [a.u.]      Occupation                 s                py                pz                px               d-2               d-1                d0               d+1               d+2
       1         -1.043404        2.000000        0.03792846        0.01845605        0.01486430        0.00023698        0.00022548        0.00115580        0.00000387        0.00000615        0.00026909
       2         -1.027581        2.000000        0.03877415        0.00069657        0.02929486        0.00379442        0.00013755        0.00003658        0.00072230        0.00071444        0.00001411
       3         -0.844966        2.000000        0.28085135        0.02121889        0.02152504        0.00033867        0.00164766        0.00021532        0.00011542        0.00078611        0.00000094
       4         -0.834418        2.000000        0.31133530        0.00128241        0.02063598        0.00225238        0.00041231        0.00011428        0.00080330        0.00222498        0.00011644
       5         -0.832379        2.000000        0.27572908        0.01172206        0.02073517        0.00105407        0.00206151        0.00057965        0.00005389        0.00009311        0.00006494
       6         -0.826805        2.000000        0.30427325        0.00913798        0.01670104        0.00240832        0.00194219        0.00066814        0.00005917        0.00025898        0.00004316
       7         -0.810231        2.000000        0.01990183        0.00702407        0.00293326        0.00970375        0.00013264        0.00020389        0.00011199        0.00019528        0.00004174
       8         -0.765963        2.000000        0.06697612        0.01792678        0.00740520        0.02431584        0.00032351        0.00052452        0.00026315        0.00103197        0.00036190
       9         -0.759959        2.000000        0.07136673        0.00884432        0.00962691        0.01620617        0.00028414        0.00028411        0.00027007        0.00067953        0.00039789
      10         -0.708041        2.000000        0.02580624        0.01040873        0.00999965        0.01343807        0.00042849        0.00084363        0.00049346        0.00047683        0.00020421
      11         -0.692787        2.000000        0.00518568        0.00144418        0.00389531        0.00117969        0.00013378        0.00027950        0.00014508        0.00015183        0.00006044
      12         -0.679430        2.000000        0.00618112        0.01186705        0.00376781        0.01914195        0.00014638        0.00018662        0.00022575        0.00034742        0.00016804
      13         -0.674203        2.000000        0.00671512        0.00708873        0.00201830        0.00958167        0.00003077        0.00015658        0.00008939        0.00018238        0.00011030
      14         -0.657680        2.000000        0.02524387        0.03771132        0.02076633        0.04542234        0.00047450        0.00176053        0.00085031        0.00228331        0.00101584
      15         -0.632913        2.000000        0.04021236        0.01873965        0.03551113        0.02191258        0.00028242        0.00117437        0.00112785        0.00152492        0.00108732
      16         -0.594113        2.000000        0.03131516        0.01307072        0.03443439        0.00402814        0.00051913        0.00091060        0.00090893        0.00015390        0.00031723
      17         -0.580231        2.000000        0.00629199        0.01227085        0.00941752        0.00977234        0.00012061        0.00023892        0.00012606        0.00008322        0.00001454
      18         -0.558423        2.000000        0.00869788        0.04151606        0.02595626        0.06434062        0.00089195        0.00121120        0.00131765        0.00120764        0.00066808
      19         -0.551776        2.000000        0.02411567        0.03139602        0.03158034        0.01741773        0.00069271        0.00178115        0.00122428        0.00086083        0.00042905
      20         -0.544348        2.000000        0.02929910        0.01715121        0.02490998        0.01588471        0.00011999        0.00145210        0.00037266        0.00028779        0.00024667
      21         -0.534350        2.000000        0.01379440        0.05728033        0.02881205        0.08301347        0.00037894        0.00072888        0.00127402        0.00162063        0.00114616
      22         -0.501417        2.000000        0.00468982        0.02820492        0.06677929        0.03756693        0.00139920        0.00157064        0.00293274        0.00134725        0.00118866
      23         -0.493394        2.000000        0.01798473        0.12807992        0.03285271        0.03172178        0.00034340        0.00279166        0.00044248        0.00173904        0.00235843
      24         -0.479098        2.000000        0.01333112        0.09519697        0.06775856        0.07480275        0.00126119        0.00031650        0.00289806        0.00077401        0.00035736
      25         -0.471664        2.000000        0.00568793        0.07898602        0.03728713        0.12078058        0.00135381        0.00038331        0.00173389        0.00073921        0.00098841
      26         -0.464600        2.000000        0.00223797        0.03805416        0.01011766        0.06821777        0.00049895        0.00037433        0.00063458        0.00052893        0.00068619
      27         -0.462257        2.000000        0.00137974        0.11797194        0.03264234        0.04625601        0.00134998        0.00371363        0.00085600        0.00147238        0.00073798
      28         -0.451433        2.000000        0.02000575        0.07133477        0.09617877        0.01251471        0.00057610        0.00282403        0.00043502        0.00033409        0.00110998
      29         -0.446787        2.000000        0.00995501        0.06110295        0.13786960        0.02308792        0.00097534        0.00199221        0.00196380        0.00099258        0.00068727
      30         -0.438439        2.000000        0.00582194        0.07833509        0.17558597        0.07264196        0.00135424        0.00201192        0.00465741        0.00286354        0.00127385
      31         -0.428676        2.000000        0.00024704        0.02534446        0.03143633        0.03221923        0.00069204        0.00020713        0.00201337        0.00113358        0.00109225
      32         -0.417277        2.000000        0.00008966        0.03115273        0.01037832        0.04644426        0.00042324        0.00112377        0.00120969        0.00142540        0.00027757
      33         -0.406197        2.000000        0.00261172        0.05060484        0.01541817        0.05386346        0.00204974        0.00159163        0.00332843        0.00016454        0.00066351
      34         -0.399865        2.000000        0.00591693        0.05251507        0.01767838        0.06315587        0.00180410        0.00126920        0.00198660        0.00032535        0.00056352
      35         -0.397735        2.000000        0.00318682        0.03336447        0.01436949        0.02123072        0.00097869        0.00023874        0.00072402        0.00001634        0.00017045
      36         -0.391280        2.000000        0.00283966        0.01229006        0.00704143        0.01625072        0.00054486        0.00052390        0.00074697        0.00033936        0.00021077
      37         -0.374591        2.000000        0.01102266        0.02570038        0.04825430        0.03180828        0.00089720        0.00099468        0.00052854        0.00055899        0.00081346
      38         -0.370561        2.000000        0.00693524        0.00289986        0.05060694        0.00610065        0.00113478        0.00032341        0.00238384        0.00038182        0.00025839
      39         -0.362265        2.000000        0.00146252        0.01388659        0.01696572        0.01929511        0.00178304        0.00083933        0.00432422        0.00138857        0.00060227
      40         -0.359282        2.000000        0.00273668        0.04253444        0.00160204        0.01453199        0.00225176        0.00407730        0.00159585        0.00172833        0.00112274
      41         -0.349460        2.000000        0.00265589        0.00508753        0.00281905        0.03709305        0.00084149        0.00104075        0.00029279        0.00006529        0.00089431
      42         -0.345820        2.000000        0.00676733        0.01934374        0.01353453        0.04576047        0.00076213        0.00008782        0.00090562        0.00019123        0.00046843
      43         -0.342403        2.000000        0.00181298        0.02149321        0.00548932        0.01893806        0.00036381        0.00040629        0.00014825        0.00040076        0.00032098
      44         -0.333398        2.000000        0.00222739        0.04709495        0.03246217        0.05277137        0.00036415        0.00080803        0.00104541        0.00079097        0.00259850
      45         -0.331732        2.000000        0.00282139        0.04147257        0.00713118        0.04582539        0.00013409        0.00055867        0.00036621        0.00057357        0.00025830
      46         -0.325755        2.000000        0.00125701        0.04420299        0.02942725        0.05164609        0.00038115        0.00075105        0.00082530        0.00073896        0.00104419
      47         -0.314441        2.000000        0.00366755        0.00463904        0.01560819        0.00583503        0.00082698        0.00150443        0.00098439        0.00065568        0.00024400
      48         -0.308700        2.000000        0.00307145        0.00556225        0.01696932        0.00645285        0.00094487        0.00181876        0.00125478        0.00058564        0.00038109
      49         -0.299646        2.000000        0.00047246        0.03927229        0.02185852        0.01984155        0.00083464        0.00059628        0.00026903        0.00012069        0.00003696
      50         -0.296048        2.000000        0.00042916        0.05030159        0.08077554        0.11459644        0.00025672        0.00013810        0.00243174        0.00025625        0.00006131
      51         -0.290000        2.000000        0.00155049        0.12134407        0.04654841        0.14002566        0.00034298        0.00021067        0.00114492        0.00125464        0.00086425
      52         -0.273166        2.000000        0.00360272        0.06944249        0.03839597        0.13046804        0.00009062        0.00142655        0.00073292        0.00070343        0.00466088
      53         -0.254717        2.000000        0.00638276        0.14251099        0.04312856        0.19479340        0.00004318        0.00120253        0.00032689        0.00064156        0.00355511
      54         -0.250267        2.000000        0.10598300        0.19231487        0.34640436        0.01523012        0.00194740        0.00016660        0.00031902        0.00054677        0.00015844
      55         -0.235443        2.000000        0.09698965        0.07447763        0.48577715        0.00796394        0.00261462        0.00002842        0.00014822        0.00046306        0.00000717
      56         -0.230510        2.000000        0.00114379        0.00963559        0.00196193        0.00839509        0.00002136        0.00000260        0.00002328        0.00002987        0.00000647
      57         -0.222173        2.000000        0.00129044        0.05320061        0.01415195        0.06964432        0.00001216        0.00003206        0.00012947        0.00018369        0.00053385
      58         -0.215845        2.000000        0.00060818        0.02681132        0.02538651        0.03471266        0.00004377        0.00010803        0.00017008        0.00001667        0.00021388
      59         -0.209108        2.000000        0.00221499        0.04201015        0.02529004        0.08419299        0.00007744        0.00002706        0.00011397        0.00009902        0.00027926
      60         -0.176458        2.000000        0.00515201        0.08176775        0.04016332        0.14694415        0.00036567        0.00180551        0.00145188        0.00125596        0.00712460
      61         -0.159275        2.000000        0.00346975        0.07671022        0.04570523        0.13334030        0.00038321        0.00135869        0.00156105        0.00124912        0.00482999
      62         -0.092426        0.000000        0.00071398        0.05976636        0.04025455        0.08142631        0.00028232        0.00108007        0.00118772        0.00106842        0.00246940
      63         -0.043111        0.000000        0.00085727        0.01865127        0.01244648        0.02138487        0.00050979        0.00254563        0.00173597        0.00135581        0.00749478
      64         -0.029283        0.000000        0.00086232        0.00377933        0.00252649        0.00665622        0.00033186        0.00027054        0.00130591        0.00043797        0.00169556
      65         -0.017535        0.000000        0.00014432        0.01310192        0.00596048        0.01492601        0.00015396        0.00158430        0.00081731        0.00108949        0.00433556
      66         -0.007199        0.000000        0.00249631        0.01742065        0.01103243        0.02962739        0.00135021        0.00291554        0.00533704        0.00354976        0.00927995
      67         -0.002088        0.000000        0.00391832        0.02918766        0.02355739        0.04138235        0.00080022        0.00229758        0.00611670        0.00313063        0.00176634
      68         -0.000610        0.000000        0.00499724        0.01640987        0.00848581        0.02162701        0.00163849        0.00040728        0.00208395        0.00125518        0.00169704
      69          0.036532        0.000000        0.02230223        0.04585138        0.01912079        0.04661664        0.00559376        0.00314935        0.00194707        0.00135489        0.00723039
      70          0.039125        0.000000        0.18847584        0.01077828        0.03270408        0.02192351        0.00345369        0.00669443        0.00031594        0.00275661        0.01195601
      71          0.043721        0.000000        0.16554223        0.01757769        0.05850764        0.01017214        0.00316453        0.00036337        0.00978264        0.00456137        0.00047796
      72          0.056270        0.000000        0.01374424        0.01376778        0.01912230        0.01874165        0.00332302        0.00246972        0.00620885        0.00365499        0.00124702
      73          0.068444        0.000000        0.00214952        0.03211501        0.01481647        0.02985807        0.00144454        0.00303941        0.00147644        0.00156577        0.00896273
      74          0.082364        0.000000        0.00617243        0.07544722        0.00432421        0.01918999        0.00852508        0.01001368        0.00445110        0.00290700        0.00115361
      75          0.093352        0.000000        0.02083921        0.01911120        0.02652640        0.00746333        0.00608207        0.00301057        0.00218151        0.00177614        0.00008582
      76          0.097133        0.000000        0.00381511        0.01679720        0.01617089        0.02569391        0.00554618        0.00171294        0.01023626        0.00130946        0.00310422
      77          0.109284        0.000000        0.01096283        0.02216173        0.04805849        0.01424168        0.00474218        0.00430027        0.00954045        0.00137553        0.00075907
      78          0.112245        0.000000        0.01515892        0.02377183        0.03873557        0.02677982        0.00496271        0.00319756        0.00884313        0.00214527        0.00130602
      79          0.117551        0.000000        0.04957201        0.01121703        0.00303500        0.01186681        0.00259735        0.00078156        0.00443906        0.00265706        0.00318184
      80          0.123429        0.000000        0.00386800        0.00619042        0.01352300        0.00596905        0.00224050        0.00100248        0.00127300        0.00383927        0.00092731
      81          0.127290        0.000000        0.01789726        0.02793410        0.00684523        0.02012379        0.00425698        0.00081473        0.00300066        0.00265708        0.00317382
      82          0.132077        0.000000        0.00547868        0.01774537        0.00427664        0.01909693        0.00080979        0.00012085        0.00339925        0.00469128        0.00620843
      83          0.140803        0.000000        0.09156179        0.01524628        0.01692792        0.00620460        0.00288590        0.00184809        0.00258670        0.00220532        0.00174586
      84          0.153372        0.000000        0.00407157        0.01552652        0.02527794        0.01766067        0.00221064        0.00211772        0.01636390        0.00100830        0.00643107
      85          0.155991        0.000000        0.00290548        0.02898662        0.00682755        0.00358602        0.00654831        0.00398050        0.00824503        0.00213510        0.00052765
      86          0.170550        0.000000        0.01008499        0.01413015        0.00719946        0.01303437        0.00907306        0.00585309        0.00601609        0.00557235        0.00274413
      87          0.174290        0.000000        0.01519829        0.01301051        0.00779612        0.00947486        0.00363366        0.00417504        0.00378660        0.00483795        0.00283252
      88          0.179240        0.000000        0.03471125        0.01896555        0.01260036        0.03427966        0.00493658        0.00207765        0.00105146        0.00664577        0.00181631
      89          0.187047        0.000000        0.01111373        0.01857294        0.02089538        0.00860418        0.00518328        0.00749890        0.00672402        0.00644295        0.00294183
      90          0.191689        0.000000        0.00491739        0.02219930        0.02974269        0.02358225        0.00522034        0.00739642        0.00514950        0.00427631        0.00307375
      91          0.194483        0.000000        0.01289124        0.01046870        0.03300863        0.01397074        0.00434648        0.00413617        0.00130592        0.00426836        0.00156779
      92          0.198222        0.000000        0.00295941        0.01858271        0.01327305        0.01814116        0.00567095        0.00271270        0.00368045        0.00498421        0.00143746
      93          0.201220        0.000000        0.00493977        0.00795434        0.03281717        0.01039420        0.00476789        0.00199039        0.00157039        0.00221078        0.00058054
      94          0.211392        0.000000        0.02429295        0.03338423        0.03640642        0.00651779        0.00073073        0.01282735        0.00589282        0.00740024        0.00658128
      95          0.220624        0.000000        0.02336884        0.02262284        0.02043410        0.01337587        0.00269372        0.01766804        0.00232830        0.00662092        0.00478304
      96          0.221918        0.000000        0.02715269        0.02609787        0.02912924        0.01488570        0.00045630        0.00263579        0.00570887        0.00459868        0.00098751
      97          0.226028        0.000000        0.02812555        0.02046607        0.01565745        0.02584278        0.00138045        0.00250639        0.00292741        0.00175867        0.00120442
      98          0.239305        0.000000        0.00715870        0.01761727        0.02157367        0.01338711        0.00827325        0.00379617        0.01057834        0.00493827        0.00425254
      99          0.251282        0.000000        0.00243644        0.01121558        0.00802819        0.01795092        0.00078102        0.00277082        0.00077709        0.00548841        0.00235896
     100          0.253970        0.000000        0.00163585        0.03186508        0.02089446        0.05158571        0.00041945        0.00160592        0.00224404        0.00103692        0.00105629
     101          0.258376        0.000000        0.00136115        0.01297083        0.01141870        0.02311355        0.00580749        0.00165255        0.00216121        0.00444869        0.00246520
     102          0.269342        0.000000        0.00482903        0.03468692        0.04864978        0.05050033        0.00499031        0.00506543        0.01863472        0.01129267        0.01149742
     103          0.271740        0.000000        0.00549857        0.04399756        0.03578587        0.09514857        0.00164972        0.00219511        0.00775676        0.00272165        0.00267897
     104          0.276648        0.000000        0.00261543        0.02685983        0.03379600        0.03221068        0.00207470        0.00715817        0.01725304        0.00674584        0.01006463
     105          0.282866        0.000000        0.00188539        0.05064540        0.03388392        0.02891676        0.00734510        0.01917195        0.00872697        0.01194139        0.01105329
     106          0.290559        0.000000        0.00513268        0.05645964        0.06555959        0.06455752        0.00137782        0.00528573        0.00394648        0.00103839        0.00382131
     107          0.299450        0.000000        0.00608455        0.03487933        0.04456740        0.06507777        0.00106555        0.01332077        0.00423404        0.00382512        0.00179363
     108          0.307508        0.000000        0.00410736        0.01121412        0.05153912        0.01491586        0.00367363        0.00056058        0.01489958        0.00359704        0.00046717
     109          0.315541        0.000000        0.04696548        0.05698253        0.10390078        0.00334143        0.00957957        0.00407730        0.00485912        0.00407572        0.00354220
     110          0.318566        0.000000        0.03342643        0.02272257        0.05456656        0.05461931        0.00425123        0.00384437        0.00372440        0.00469117        0.00365286
     111          0.320387        0.000000        0.04510052        0.03420454        0.08634829        0.01381912        0.00752483        0.00524807        0.00591914        0.00623770        0.00167242
