# Projected DOS for atomic kind O at iteration step i = 0, E(Fermi) =    -0.162995 a.u.
#     MO Eigenvalue [a.u.]      Occupation                 s                py                pz                px               d-2               d-1                d0               d+1               d+2
       1         -1.035483        2.000000        0.33833042        0.02022162        0.00516040        0.00538919        0.00071729        0.00060453        0.00001157        0.00077573        0.00000015
       2         -1.020065        2.000000        0.35064286        0.00060057        0.02076847        0.00820849        0.00094863        0.00045214        0.00026692        0.00027299        0.00004555
       3         -0.849599        2.000000        0.08569202        0.00997010        0.00854787        0.00097805        0.00007400        0.00225118        0.00001882        0.00019580        0.00088623
       4         -0.841919        2.000000        0.07087477        0.00032365        0.00985589        0.00246884        0.00000303        0.00001729        0.00108049        0.00084713        0.00004538
       5         -0.839136        2.000000        0.00079400        0.00005519        0.00203163        0.00132091        0.00003654        0.00019874        0.00002750        0.00003755        0.00007251
       6         -0.837360        2.000000        0.02213068        0.00226481        0.00597320        0.00022907        0.00012903        0.00004649        0.00093614        0.00034959        0.00002362
       7         -0.817611        2.000000        0.00088065        0.00467010        0.00508924        0.01156529        0.00014121        0.00039148        0.00019917        0.00071632        0.00017015
       8         -0.767237        2.000000        0.00120627        0.01501438        0.01633035        0.02052859        0.00170951        0.00126360        0.00150851        0.00004422        0.00014098
       9         -0.761944        2.000000        0.00256500        0.00749449        0.01058959        0.01132153        0.00158688        0.00079828        0.00121987        0.00013767        0.00024774
      10         -0.710481        2.000000        0.00125297        0.01506353        0.01584614        0.02708236        0.00078677        0.00131331        0.00087208        0.00162493        0.00035898
      11         -0.689903        2.000000        0.00207210        0.02823585        0.01923259        0.03281288        0.00085692        0.00083442        0.00083765        0.00012744        0.00004171
      12         -0.677893        2.000000        0.01301273        0.00505481        0.00435617        0.00622439        0.00089375        0.00017751        0.00034327        0.00067017        0.00029409
      13         -0.671784        2.000000        0.01237553        0.00021493        0.00073274        0.00028415        0.00038912        0.00014715        0.00004608        0.00101404        0.00033955
      14         -0.661361        2.000000        0.00061700        0.00707431        0.00630070        0.00775906        0.00156004        0.00138489        0.00121253        0.00038054        0.00019840
      15         -0.639607        2.000000        0.00361006        0.00281037        0.00386512        0.00410968        0.00117686        0.00046567        0.00081003        0.00023878        0.00026949
      16         -0.597516        2.000000        0.00396327        0.01650459        0.01541166        0.01884920        0.00046967        0.00120170        0.00052796        0.00135613        0.00037099
      17         -0.580324        2.000000        0.00020269        0.04746974        0.05591821        0.06784514        0.00076457        0.00142366        0.00105633        0.00029447        0.00011239
      18         -0.557382        2.000000        0.00533210        0.03217836        0.03824312        0.03442579        0.00066504        0.00033720        0.00048493        0.00075054        0.00039410
      19         -0.550007        2.000000        0.00505906        0.02357175        0.01257511        0.00456684        0.00077109        0.00013633        0.00050237        0.00039156        0.00014462
      20         -0.542680        2.000000        0.02356594        0.02170567        0.02711812        0.00123612        0.00044723        0.00018865        0.00009202        0.00021971        0.00005550
      21         -0.537128        2.000000        0.03431724        0.00809094        0.02793028        0.00195944        0.00052874        0.00006605        0.00000804        0.00021131        0.00000864
      22         -0.502774        2.000000        0.00500633        0.03077687        0.07088700        0.01639960        0.00028288        0.00045860        0.00106414        0.00037029        0.00018545
      23         -0.494109        2.000000        0.00258639        0.01786776        0.05140242        0.00295394        0.00059971        0.00092518        0.00051540        0.00201875        0.00113602
      24         -0.479900        2.000000        0.00551393        0.02605968        0.00817475        0.03136764        0.00007721        0.00062364        0.00012121        0.00109448        0.00039685
      25         -0.471012        2.000000        0.00111750        0.02547857        0.02733032        0.02790765        0.00013768        0.00016662        0.00025850        0.00002781        0.00001343
      26         -0.466518        2.000000        0.00395682        0.04792407        0.00730294        0.01553858        0.00081479        0.00047693        0.00041008        0.00009068        0.00006622
      27         -0.461498        2.000000        0.00870904        0.00970836        0.01298726        0.02328857        0.00147364        0.00007545        0.00073465        0.00000627        0.00003125
      28         -0.450575        2.000000        0.02839446        0.00098083        0.09126616        0.01448754        0.00032623        0.00001925        0.00017782        0.00023913        0.00001499
      29         -0.448889        2.000000        0.02071545        0.02506521        0.02270503        0.00320656        0.00058518        0.00005398        0.00017361        0.00067986        0.00016815
      30         -0.444833        2.000000        0.00453852        0.01140900        0.04852925        0.00212728        0.00027952        0.00066884        0.00049235        0.00004739        0.00010443
      31         -0.426004        2.000000        0.00036733        0.13463130        0.07366832        0.10994206        0.00040815        0.00007165        0.00107427        0.00100239        0.00254755
      32         -0.415951        2.000000        0.00005176        0.12082424        0.04089953        0.15309447        0.00021264        0.00181584        0.00155091        0.00086599        0.00072209
      33         -0.406542        2.000000        0.00309256        0.01011459        0.00824530        0.03824200        0.00011117        0.00029243        0.00004719        0.00072087        0.00027029
      34         -0.397792        2.000000        0.00483581        0.03533662        0.00422377        0.04174767        0.00045426        0.00008891        0.00018627        0.00018126        0.00001819
      35         -0.388975        2.000000        0.00145449        0.01604899        0.00054374        0.02294533        0.00003013        0.00000093        0.00000454        0.00000968        0.00002676
      36         -0.387565        2.000000        0.00141152        0.00746739        0.00079794        0.00004040        0.00003672        0.00004955        0.00000838        0.00028394        0.00008885
      37         -0.378294        2.000000        0.01010759        0.06448292        0.01356594        0.03733383        0.00015398        0.00000866        0.00018844        0.00093009        0.00021469
      38         -0.370827        2.000000        0.02468256        0.04099552        0.05965512        0.07100828        0.00071695        0.00078903        0.00012896        0.00076901        0.00017830
      39         -0.363034        2.000000        0.00307837        0.01287989        0.04870896        0.00212947        0.00046306        0.00007605        0.00077812        0.00037191        0.00006025
      40         -0.359550        2.000000        0.00134841        0.00785906        0.01349887        0.00476882        0.00014396        0.00086492        0.00016667        0.00026335        0.00013826
      41         -0.352731        2.000000        0.00214217        0.00610225        0.00670635        0.01174948        0.00000342        0.00012664        0.00056334        0.00015139        0.00262564
      42         -0.350167        2.000000        0.01734883        0.04513236        0.04264775        0.00774963        0.00024500        0.00001321        0.00134048        0.00239931        0.00027303
      43         -0.345420        2.000000        0.01264068        0.00092467        0.03138298        0.02787410        0.00048474        0.00137226        0.00016285        0.00037284        0.00070483
      44         -0.333924        2.000000        0.00152782        0.00666197        0.00364212        0.01500227        0.00136683        0.00060858        0.00007535        0.00002566        0.00042550
      45         -0.333138        2.000000        0.00088738        0.00501531        0.02472200        0.01092905        0.00016302        0.00032339        0.00056081        0.00095695        0.00020517
      46         -0.326647        2.000000        0.00043754        0.01925173        0.02817634        0.06146057        0.00004225        0.00002497        0.00018137        0.00002795        0.00002864
      47         -0.314952        2.000000        0.00181131        0.02099859        0.00831850        0.01785594        0.00096855        0.00016443        0.00020798        0.00056503        0.00022518
      48         -0.306147        2.000000        0.00907722        0.05531137        0.07984337        0.04325000        0.00002736        0.00087890        0.00006223        0.00102290        0.00038873
      49         -0.300412        2.000000        0.00709357        0.01032182        0.09027212        0.07103980        0.00011387        0.00032521        0.00057228        0.00048835        0.00004095
      50         -0.299163        2.000000        0.00507757        0.16361895        0.04807054        0.02397943        0.00030769        0.00032030        0.00140155        0.00004954        0.00021752
      51         -0.292743        2.000000        0.00117272        0.07396206        0.00548590        0.15697837        0.00039973        0.00001682        0.00031801        0.00096157        0.00035734
      52         -0.275925        2.000000        0.00008751        0.00049851        0.00088932        0.00130096        0.00074247        0.00092396        0.00245763        0.00052545        0.00340870
      53         -0.257437        2.000000        0.00007862        0.00059090        0.00069699        0.00005373        0.00081664        0.00043682        0.00223949        0.00106422        0.00302256
      54         -0.243549        2.000000        0.00200573        0.02788419        0.03117129        0.00067726        0.00044667        0.00101785        0.00035524        0.00013537        0.00005036
      55         -0.235898        2.000000        0.00221297        0.00620825        0.04631577        0.00452921        0.00014192        0.00095338        0.00093049        0.00000103        0.00004180
      56         -0.228470        2.000000        0.00013850        0.00052032        0.00054882        0.00176296        0.00008852        0.00045040        0.00009355        0.00017992        0.00143318
      57         -0.222750        2.000000        0.00002372        0.00751198        0.00515577        0.01017459        0.00003512        0.00027297        0.00011366        0.00008778        0.00148519
      58         -0.216947        2.000000        0.00004833        0.03743393        0.01816348        0.05003088        0.00017072        0.00026061        0.00015627        0.00012110        0.00234982
      59         -0.210674        2.000000        0.00007424        0.04072031        0.03275797        0.04123170        0.00006935        0.00058173        0.00036654        0.00011248        0.00127988
      60         -0.178619        2.000000        0.00002028        0.00292937        0.00190101        0.00458750        0.00044841        0.00029853        0.00118792        0.00054122        0.00082488
      61         -0.162995        2.000000        0.00004166        0.00055011        0.00015170        0.00026965        0.00031936        0.00032688        0.00084658        0.00033399        0.00092595
      62         -0.089374        0.000000        0.00011416        0.01431894        0.00968483        0.01674469        0.00031186        0.00054904        0.00152205        0.00066199        0.00045171
      63         -0.044650        0.000000        0.00013659        0.00455094        0.00584096        0.00664196        0.00068789        0.00049381        0.00273364        0.00120240        0.00148341
      64         -0.028699        0.000000        0.00004505        0.01083182        0.00647844        0.01267703        0.00003885        0.00142059        0.00006381        0.00061085        0.00636525
      65         -0.019602        0.000000        0.00050057        0.03916695        0.01988806        0.03914033        0.00018826        0.00231009        0.00061538        0.00064314        0.00647998
      66         -0.008071        0.000000        0.00039209        0.01252802        0.00723033        0.01046131        0.00010839        0.00033771        0.00121673        0.00033023        0.00259571
      67         -0.002733        0.000000        0.01336253        0.00736081        0.00637311        0.00505292        0.00515078        0.00174195        0.00057479        0.00019024        0.00118750
      68          0.001580        0.000000        0.00702408        0.00205023        0.00783189        0.00424683        0.00076513        0.00032772        0.00403656        0.00096288        0.00043600
      69          0.038841        0.000000        0.03952963        0.00963912        0.01966073        0.01192643        0.00408251        0.00004726        0.00333335        0.00246267        0.00021077
      70          0.049058        0.000000        0.00192761        0.00149601        0.00074166        0.00140251        0.00001376        0.00013122        0.00023418        0.00113113        0.00009643
      71          0.051795        0.000000        0.00104575        0.00052855        0.00108627        0.00181792        0.00008723        0.00031360        0.00069761        0.00010414        0.00053255
      72          0.056615        0.000000        0.04386027        0.00581219        0.00456462        0.01446536        0.00080092        0.00125531        0.00346532        0.00178206        0.00047144
      73          0.069507        0.000000        0.02830839        0.00536127        0.00472159        0.00896873        0.00063652        0.00237260        0.00268056        0.00178128        0.00127613
      74          0.086433        0.000000        0.11932574        0.02308002        0.00909520        0.02844159        0.00311144        0.00252330        0.00097842        0.00117409        0.00106115
      75          0.095913        0.000000        0.00374474        0.00822575        0.00085901        0.00856187        0.00150468        0.00072736        0.00223736        0.00011183        0.00006426
      76          0.098855        0.000000        0.00499071        0.01098066        0.00587022        0.01838701        0.00242850        0.00242160        0.00115595        0.00062465        0.00042792
      77          0.103538        0.000000        0.00494203        0.00673250        0.00087267        0.01036329        0.00012033        0.00020610        0.00040503        0.00060223        0.00045439
      78          0.113967        0.000000        0.01799495        0.00580961        0.00103253        0.00145276        0.00042701        0.00021889        0.00131394        0.00001195        0.00325792
      79          0.116363        0.000000        0.04566658        0.01176215        0.00893508        0.00233161        0.00143708        0.00376775        0.00220118        0.00053976        0.00021768
      80          0.119204        0.000000        0.02179893        0.00421740        0.00041129        0.00147222        0.00003960        0.00081732        0.00113851        0.00022053        0.00207636
      81          0.127427        0.000000        0.04146750        0.00671415        0.00223071        0.00258784        0.00229999        0.00203453        0.00005033        0.00036009        0.00244035
      82          0.132695        0.000000        0.03008072        0.00186759        0.00072818        0.00562626        0.00088001        0.00091677        0.00034564        0.00132244        0.00296672
      83          0.138725        0.000000        0.00193947        0.00246456        0.00471800        0.00735103        0.00055859        0.00044423        0.00152125        0.00091959        0.00060669
      84          0.147229        0.000000        0.00258586        0.00257758        0.00580106        0.00038469        0.00135870        0.00142092        0.00022339        0.00024183        0.00045924
      85          0.159280        0.000000        0.00068137        0.00056225        0.00314625        0.00294636        0.00060095        0.00150986        0.00014748        0.00064070        0.00003293
      86          0.172447        0.000000        0.00024988        0.00310423        0.00544679        0.00215290        0.00022162        0.00056405        0.00035946        0.00001087        0.00004047
      87          0.173881        0.000000        0.00011199        0.05382820        0.03095437        0.01411998        0.00978210        0.00263870        0.00841298        0.00011418        0.00017781
      88          0.178887        0.000000        0.00155947        0.01533206        0.01140216        0.01452209        0.00432324        0.00180417        0.00299684        0.00035524        0.00060214
      89          0.186933        0.000000        0.00139690        0.00250792        0.01305461        0.00704952        0.00444617        0.01042484        0.00582431        0.00012070        0.00251761
      90          0.189173        0.000000        0.00468347        0.00344045        0.00651836        0.00639686        0.00022121        0.00523178        0.00445899        0.00219854        0.00111293
      91          0.193023        0.000000        0.00209059        0.00515005        0.03672138        0.03188298        0.00395630        0.00479809        0.00470629        0.00056217        0.00095188
      92          0.196081        0.000000        0.00089953        0.01697609        0.01008084        0.00766641        0.00504807        0.00550196        0.00605603        0.00053673        0.00017280
      93          0.199922        0.000000        0.00027672        0.01157661        0.02992963        0.00555460        0.00028412        0.00322383        0.00255736        0.00083812        0.00034772
      94          0.218296        0.000000        0.00411428        0.00410107        0.00693915        0.01008791        0.00592715        0.00058910        0.00075344        0.00137067        0.00043830
      95          0.219222        0.000000        0.00200023        0.01857799        0.01306623        0.00840089        0.00551530        0.00008292        0.00201208        0.00008588        0.00024950
      96          0.224787        0.000000        0.00607095        0.00443303        0.00416871        0.01233791        0.00232525        0.00104280        0.00026920        0.00055844        0.00003738
      97          0.232831        0.000000        0.00069462        0.00091201        0.01998971        0.01916068        0.00318441        0.00311469        0.00008386        0.00819006        0.00297009
      98          0.240724        0.000000        0.00098489        0.00333194        0.00719072        0.00108199        0.00667192        0.00345778        0.00398081        0.00010634        0.00125059
      99          0.246548        0.000000        0.00376232        0.00949415        0.04858483        0.00844052        0.00202140        0.00352949        0.00115084        0.00033420        0.00048085
     100          0.252093        0.000000        0.00123489        0.02066188        0.00048077        0.00514971        0.00195756        0.00015610        0.00071654        0.00082458        0.00147270
     101          0.256180        0.000000        0.00298860        0.01508560        0.04210571        0.00455547        0.00232541        0.00336327        0.00043204        0.00725989        0.00032972
     102          0.269715        0.000000        0.00088532        0.01089391        0.00473983        0.00083690        0.00031078        0.00026289        0.00015973        0.00025106        0.00024610
     103          0.273729        0.000000        0.00392719        0.00668834        0.01152648        0.00041013        0.00060851        0.00184464        0.00188488        0.00273243        0.00113223
     104          0.274674        0.000000        0.00161958        0.01016873        0.01028547        0.01785852        0.00551772        0.00009899        0.00024168        0.00264514        0.00034403
     105          0.287499        0.000000        0.00022781        0.00118911        0.00461190        0.00065188        0.00002572        0.00653215        0.00191207        0.00011894        0.00011593
     106          0.290608        0.000000        0.00072644        0.00179910        0.00481570        0.00526861        0.00086117        0.00546312        0.00506566        0.00017163        0.00030921
     107          0.297238        0.000000        0.00063471        0.00190273        0.00379928        0.00106402        0.00006546        0.00325791        0.00199786        0.00069339        0.00120263
     108          0.308260        0.000000        0.01968574        0.00853014        0.01164122        0.00470128        0.00180619        0.00896144        0.00303232        0.00174890        0.00055586
     109          0.311442        0.000000        0.00259857        0.00397903        0.00439959        0.00503776        0.00417858        0.00311536        0.00384202        0.00008338        0.00035394
     110          0.319900        0.000000        0.00378482        0.00086752        0.00124849        0.00255112        0.00020626        0.00064281        0.00027655        0.00018601        0.00011058
     111          0.323500        0.000000        0.00530934        0.00164800        0.00360529        0.00304140        0.00140051        0.00570414        0.00183646        0.00281478        0.00054260
