# Projected DOS for atomic kind C at iteration step i = 0, E(Fermi) =    -0.162414 a.u.
#     MO Eigenvalue [a.u.]      Occupation                 s                py                pz                px               d-2               d-1                d0               d+1               d+2
       1         -1.037127        2.000000        0.15709136        0.04760538        0.11081152        0.13500984        0.02155245        0.01493264        0.00776545        0.02968834        0.00620647
       2         -1.021355        2.000000        0.15351332        0.14101774        0.06877703        0.07706502        0.03722049        0.01798291        0.01379890        0.00598791        0.00316842
       3         -0.849683        2.000000        0.13198436        0.17256100        0.07289534        0.07528305        0.03662632        0.01224865        0.02299162        0.02555007        0.00863609
       4         -0.839648        2.000000        0.16295336        0.03411390        0.13517024        0.08806986        0.03009741        0.03130693        0.01392745        0.01188288        0.00468917
       5         -0.837782        2.000000        0.15071972        0.03110212        0.07877576        0.03242183        0.00586513        0.00802935        0.01000875        0.01821059        0.00178992
       6         -0.834387        2.000000        0.14152646        0.06633541        0.09447116        0.03461407        0.02130446        0.01670124        0.01216709        0.00652313        0.00257300
       7         -0.815836        2.000000        0.32261462        0.11233534        0.06742471        0.13486429        0.01630825        0.00985095        0.00262733        0.01284511        0.00133913
       8         -0.767152        2.000000        0.34012995        0.11583033        0.12722252        0.09353271        0.00786880        0.00661439        0.00438117        0.00896224        0.00339894
       9         -0.761779        2.000000        0.32943321        0.10609240        0.14937115        0.10815605        0.00844043        0.00782652        0.00393581        0.00833270        0.00453574
      10         -0.709644        2.000000        0.34912875        0.11748593        0.06763020        0.16342625        0.00668582        0.01181752        0.00763385        0.00938601        0.00593457
      11         -0.690896        2.000000        0.34049360        0.10967076        0.14922115        0.09427352        0.01250992        0.01544907        0.01358065        0.01263913        0.00622857
      12         -0.678438        2.000000        0.36539198        0.12581802        0.13814374        0.08422097        0.01486237        0.01972155        0.01679228        0.01473178        0.00645738
      13         -0.672446        2.000000        0.31285207        0.12470006        0.15456073        0.07272411        0.01903766        0.01760341        0.01764076        0.02180791        0.01011444
      14         -0.660578        2.000000        0.30194110        0.08740733        0.11546867        0.07894177        0.01105218        0.01758119        0.01225346        0.02471431        0.01310831
      15         -0.638729        2.000000        0.36671706        0.09357591        0.09621609        0.09582000        0.01319271        0.02100079        0.01711850        0.02480009        0.01353106
      16         -0.597160        2.000000        0.21339326        0.17856605        0.07609868        0.22201938        0.00483601        0.01034729        0.00639106        0.01437602        0.00820938
      17         -0.580904        2.000000        0.21633966        0.17032960        0.14359242        0.14269886        0.00524355        0.00602986        0.00594194        0.00597642        0.00329632
      18         -0.557214        2.000000        0.20691596        0.14555159        0.15871280        0.10768905        0.00330940        0.00296916        0.00357155        0.00438049        0.00140619
      19         -0.550425        2.000000        0.22659155        0.15672649        0.19308245        0.08202440        0.00391822        0.00569529        0.00304543        0.00438013        0.00301519
      20         -0.543200        2.000000        0.18688342        0.15333159        0.26480152        0.07280326        0.00578050        0.00674232        0.00528540        0.00730104        0.00435825
      21         -0.536244        2.000000        0.18481381        0.10955387        0.27036503        0.08134507        0.00824380        0.00549474        0.00806870        0.00388013        0.00102523
      22         -0.502603        2.000000        0.14388464        0.14876978        0.16835913        0.12309888        0.00525008        0.00728839        0.00606498        0.00596246        0.00270768
      23         -0.494205        2.000000        0.09682787        0.11990278        0.18663168        0.12297393        0.00925790        0.00921446        0.00622086        0.00696197        0.00302310
      24         -0.479832        2.000000        0.04325208        0.13115969        0.18172438        0.08775015        0.00869365        0.00908045        0.00946088        0.00437222        0.00169064
      25         -0.470855        2.000000        0.13487666        0.08270373        0.14852778        0.10952698        0.01490984        0.01290975        0.01806496        0.01486451        0.00589723
      26         -0.466030        2.000000        0.08254731        0.16051155        0.15248264        0.04506469        0.00883738        0.01472518        0.00940274        0.00758709        0.00604414
      27         -0.462678        2.000000        0.08650739        0.08740271        0.15999001        0.10270360        0.00741537        0.01281286        0.00883884        0.01254140        0.00535991
      28         -0.451037        2.000000        0.03521714        0.08732081        0.23905796        0.08707555        0.00623133        0.01508707        0.00850574        0.01365505        0.00449458
      29         -0.449647        2.000000        0.04528830        0.25768667        0.12186249        0.08622394        0.01569542        0.01089052        0.01356023        0.00767935        0.00706006
      30         -0.445783        2.000000        0.08790765        0.07290466        0.07562111        0.13175968        0.01192465        0.01337636        0.01311930        0.00918644        0.00467331
      31         -0.426658        2.000000        0.00147016        0.15363618        0.16628860        0.18092375        0.00586979        0.00809802        0.01469954        0.00320820        0.01416661
      32         -0.416072        2.000000        0.00081150        0.19413247        0.07027771        0.23984224        0.00369692        0.00448386        0.00502859        0.00658786        0.02449983
      33         -0.405642        2.000000        0.05776811        0.20983260        0.06641306        0.17575713        0.01177468        0.01088140        0.00975022        0.00686561        0.00334913
      34         -0.398655        2.000000        0.03659536        0.14125712        0.17821350        0.17756920        0.00689837        0.01215799        0.00955842        0.01557099        0.00825632
      35         -0.390885        2.000000        0.06257386        0.25826576        0.25268180        0.06689232        0.00406908        0.02323243        0.00638318        0.01282502        0.01281798
      36         -0.388539        2.000000        0.06125779        0.11990819        0.29617022        0.15765992        0.00872777        0.01090453        0.02598200        0.01610327        0.00551537
      37         -0.377355        2.000000        0.02962701        0.11491807        0.25411869        0.16537873        0.00666181        0.01681499        0.01676306        0.01507009        0.01086229
      38         -0.371424        2.000000        0.02691420        0.18798148        0.27298479        0.09742967        0.00468133        0.01235299        0.01620004        0.01433837        0.00537818
      39         -0.363137        2.000000        0.01337800        0.38402663        0.11550765        0.22446945        0.01130947        0.01272390        0.01095164        0.00544661        0.00465247
      40         -0.359163        2.000000        0.00605110        0.12849364        0.23625935        0.34005509        0.00619127        0.01085566        0.01250663        0.00627176        0.00703342
      41         -0.352037        2.000000        0.00795993        0.20699431        0.24365490        0.27909279        0.00961025        0.00656282        0.00794503        0.01035578        0.01975408
      42         -0.351000        2.000000        0.02669811        0.25625983        0.15486962        0.18508800        0.02186989        0.01402083        0.02009815        0.00960187        0.00615266
      43         -0.345151        2.000000        0.03001375        0.15472240        0.18357985        0.23702178        0.01469889        0.02358196        0.01206077        0.01703436        0.01358196
      44         -0.333776        2.000000        0.00974115        0.18294827        0.21225867        0.22364040        0.00977093        0.01233060        0.01424326        0.01760381        0.02220580
      45         -0.332919        2.000000        0.01392523        0.23420289        0.19490048        0.16074213        0.00507820        0.01794665        0.01505584        0.02304566        0.02031101
      46         -0.326542        2.000000        0.00192230        0.18976814        0.11979783        0.27671384        0.00779211        0.01558198        0.00887800        0.00760554        0.02901760
      47         -0.314927        2.000000        0.01739806        0.22086300        0.14214717        0.08996196        0.00723739        0.02742164        0.01152963        0.01282695        0.01205604
      48         -0.306578        2.000000        0.01275025        0.12207145        0.22540738        0.14197705        0.01489266        0.01590129        0.03395895        0.01610427        0.00825984
      49         -0.300339        2.000000        0.01423678        0.10257618        0.13399183        0.09290780        0.01040748        0.01024184        0.01861408        0.02169663        0.01138153
      50         -0.298642        2.000000        0.00802299        0.09333742        0.12183698        0.12481856        0.00766265        0.01274890        0.02675930        0.00737181        0.03147254
      51         -0.292139        2.000000        0.00156587        0.13781575        0.07479512        0.13733815        0.00898395        0.01864815        0.02209657        0.02399085        0.01806764
      52         -0.275145        2.000000        0.00166739        0.20276606        0.15436600        0.25411267        0.00661354        0.00975114        0.01960162        0.01324077        0.03309958
      53         -0.256992        2.000000        0.00195446        0.15837107        0.09414000        0.19634781        0.00677508        0.00871011        0.01906156        0.01746146        0.04355155
      54         -0.245260        2.000000        0.04899675        0.06827286        0.05525618        0.01523208        0.00737131        0.04088894        0.01168401        0.00191808        0.01214808
      55         -0.235682        2.000000        0.04736875        0.02338352        0.09625858        0.02653292        0.00968744        0.01616888        0.04019660        0.00597197        0.00076974
      56         -0.228981        2.000000        0.00094366        0.13541823        0.09953909        0.20073797        0.01822486        0.00837924        0.04346414        0.01556876        0.01763974
      57         -0.222442        2.000000        0.00050861        0.20839516        0.11519293        0.26107370        0.00708756        0.01961925        0.02006687        0.01426794        0.05403505
      58         -0.217037        2.000000        0.00055425        0.22066956        0.13066374        0.28652269        0.00717081        0.01393916        0.01827991        0.01551281        0.05220067
      59         -0.210223        2.000000        0.00106300        0.18505143        0.15967184        0.28561080        0.01179694        0.01509607        0.02604117        0.00693162        0.04752268
      60         -0.178113        2.000000        0.00127970        0.18504795        0.11434245        0.24188535        0.00654866        0.00979855        0.02427526        0.01552944        0.03679084
      61         -0.162414        2.000000        0.00111167        0.19491043        0.13240387        0.26839353        0.00659109        0.01202618        0.02356915        0.01468205        0.03817063
      62         -0.089712        0.000000        0.00141136        0.17395441        0.12965966        0.19893029        0.00799349        0.02057854        0.02273689        0.01441293        0.06237952
      63         -0.044114        0.000000        0.00200408        0.23639375        0.14713280        0.32480168        0.01598139        0.01850098        0.03399243        0.01835533        0.05491199
      64         -0.028861        0.000000        0.00220106        0.23026212        0.15378473        0.32129016        0.02402870        0.01995981        0.04661214        0.02739322        0.04525821
      65         -0.018759        0.000000        0.00220214        0.22830534        0.12920803        0.29504897        0.01475047        0.02334818        0.03659968        0.02388055        0.05175154
      66         -0.007916        0.000000        0.00593465        0.20823955        0.14488386        0.30646758        0.01367030        0.02220581        0.02651674        0.01419016        0.05746269
      67         -0.002464        0.000000        0.06503282        0.09480770        0.14302090        0.13678171        0.01544910        0.02837424        0.02308673        0.02120277        0.01924442
      68          0.001205        0.000000        0.03602305        0.19552364        0.06870731        0.20636968        0.01527215        0.01852106        0.03196722        0.00966638        0.04775371
      69          0.038512        0.000000        0.02119379        0.16733288        0.09979947        0.15786271        0.01499097        0.01485739        0.03272043        0.02343234        0.03813461
      70          0.049079        0.000000        0.04679929        0.04993986        0.05012480        0.04481961        0.01055331        0.00685750        0.00587297        0.01103007        0.00403960
      71          0.050908        0.000000        0.05061964        0.01769449        0.06158358        0.02926845        0.00519944        0.00340834        0.00748378        0.02039944        0.00555225
      72          0.057454        0.000000        0.02724121        0.12401734        0.13541343        0.11883206        0.02803129        0.02852487        0.02028999        0.03959640        0.01187261
      73          0.069186        0.000000        0.02210984        0.17478189        0.12045874        0.29442854        0.01988248        0.01485117        0.03720954        0.01649565        0.02126491
      74          0.086948        0.000000        0.10016628        0.07389395        0.10194106        0.07843017        0.09165357        0.02998062        0.04367451        0.02275886        0.00901582
      75          0.095074        0.000000        0.17348707        0.04363411        0.06461705        0.06114740        0.02443864        0.04122204        0.03596282        0.04670841        0.01197572
      76          0.099671        0.000000        0.11287946        0.07592927        0.03404544        0.05484425        0.03053637        0.04545646        0.02615672        0.01959546        0.01191185
      77          0.106968        0.000000        0.09924878        0.07683970        0.05715364        0.04754552        0.02413581        0.05860341        0.01608248        0.02835522        0.02710055
      78          0.114671        0.000000        0.15536114        0.07151057        0.11494133        0.16165758        0.02120625        0.02784384        0.01745252        0.03057743        0.00760378
      79          0.116091        0.000000        0.14923739        0.06942409        0.11973497        0.08335009        0.02665166        0.01078385        0.02130370        0.02114386        0.00897619
      80          0.121925        0.000000        0.16725589        0.07411164        0.11075769        0.11720984        0.02684932        0.02864073        0.03153798        0.02334072        0.01010581
      81          0.127803        0.000000        0.16566084        0.18733130        0.07909593        0.14557319        0.02297658        0.02464625        0.00955531        0.02616548        0.02109079
      82          0.132982        0.000000        0.10237285        0.21752089        0.12766952        0.21569413        0.01848118        0.01919868        0.01819059        0.01523043        0.01386936
      83          0.140364        0.000000        0.20815533        0.09149544        0.07840337        0.09137743        0.03364931        0.01963222        0.01693725        0.02654744        0.01660879
      84          0.148452        0.000000        0.11932955        0.09206245        0.09645556        0.02224845        0.00692365        0.03365871        0.00498416        0.01173283        0.01580506
      85          0.158071        0.000000        0.10383293        0.04129546        0.14086999        0.05204623        0.00724305        0.00767799        0.02756115        0.02725072        0.00561717
      86          0.173454        0.000000        0.19237195        0.08468957        0.04988150        0.05675529        0.02372163        0.02535801        0.02950212        0.04357076        0.00825957
      87          0.174423        0.000000        0.30054116        0.05753330        0.04691377        0.04936182        0.03202363        0.03973897        0.02931349        0.01795652        0.01205843
      88          0.178981        0.000000        0.27344823        0.05070316        0.06944306        0.06182336        0.07146289        0.05429859        0.01842937        0.04869620        0.01037548
      89          0.186907        0.000000        0.29368335        0.04238978        0.08391094        0.05114144        0.04642260        0.01750608        0.02989355        0.03800825        0.00643529
      90          0.189962        0.000000        0.33383867        0.05819781        0.07380569        0.04522007        0.07593410        0.03444392        0.01178640        0.03812864        0.01538184
      91          0.193264        0.000000        0.24423926        0.07025101        0.08874599        0.04598714        0.05229330        0.02578692        0.02027455        0.03461815        0.01470504
      92          0.196359        0.000000        0.25943216        0.04579659        0.08689192        0.04050451        0.06523460        0.05473363        0.02856373        0.04512680        0.00812343
      93          0.199603        0.000000        0.21423707        0.05662259        0.08547211        0.04034561        0.06223788        0.04391634        0.02017539        0.04626667        0.01632129
      94          0.217995        0.000000        0.20649577        0.07958595        0.04022815        0.05268763        0.05926362        0.05192621        0.04264398        0.03607948        0.00919837
      95          0.220538        0.000000        0.18493003        0.06266925        0.09874615        0.04446310        0.06645421        0.03225652        0.01832541        0.02277803        0.01083517
      96          0.224915        0.000000        0.19585023        0.07876207        0.07940936        0.04885052        0.06601720        0.04246191        0.04142784        0.04118481        0.00716643
      97          0.230893        0.000000        0.19235693        0.07356730        0.09123822        0.06134110        0.03524852        0.03132674        0.01494469        0.05374230        0.01363450
      98          0.240868        0.000000        0.25596423        0.08959472        0.08190846        0.06122965        0.03241551        0.03222187        0.01963316        0.04315037        0.01723020
      99          0.248178        0.000000        0.20964458        0.05592193        0.10841328        0.05658426        0.05531777        0.04882527        0.04351759        0.03227464        0.01451622
     100          0.252180        0.000000        0.05607190        0.22018386        0.11405935        0.20131183        0.00724956        0.01113527        0.00721414        0.01499626        0.01447100
     101          0.256906        0.000000        0.17956776        0.04500139        0.12060276        0.11202045        0.02045492        0.04015901        0.01540541        0.05247952        0.02767147
     102          0.269829        0.000000        0.03602181        0.18952923        0.11935402        0.23679914        0.00610296        0.00683741        0.00963571        0.01292314        0.00891329
     103          0.273425        0.000000        0.19730052        0.07266119        0.06216822        0.09302821        0.05985413        0.04556266        0.01518379        0.04889636        0.01198724
     104          0.275876        0.000000        0.18790091        0.10630813        0.05543339        0.07139406        0.04857591        0.04078330        0.03098672        0.02946698        0.01649440
     105          0.288969        0.000000        0.03039212        0.07533675        0.09549125        0.19015155        0.03497464        0.02762134        0.03251101        0.01431234        0.01114261
     106          0.290675        0.000000        0.12704552        0.08707666        0.11155147        0.05821098        0.03999684        0.03159471        0.04296768        0.03214861        0.01116284
     107          0.297244        0.000000        0.06625537        0.10590396        0.10793834        0.10287194        0.02540955        0.03747522        0.02715899        0.02159533        0.01402735
     108          0.307887        0.000000        0.13387552        0.07269114        0.10661130        0.09105021        0.06026391        0.05029918        0.03541739        0.03857206        0.01180411
     109          0.314114        0.000000        0.07973426        0.08417420        0.10695064        0.04496142        0.05289017        0.03876773        0.05775326        0.02710686        0.01398643
     110          0.318161        0.000000        0.07926010        0.08455012        0.12216101        0.04293245        0.01821675        0.06683836        0.03937387        0.03755437        0.01709890
     111          0.322836        0.000000        0.06955887        0.07133452        0.09310141        0.10286000        0.06852580        0.05120275        0.02517637        0.07191924        0.01459637
