# Projected DOS for atomic kind H at iteration step i = 0, E(Fermi) =    -0.159534 a.u.
#     MO Eigenvalue [a.u.]      Occupation                 s                py                pz                px
       1         -1.022597        2.000000        0.00301293        0.00128930        0.00221807        0.00055247
       2         -1.018796        2.000000        0.00361767        0.00111920        0.00323088        0.00044678
       3         -0.859365        2.000000        0.18778957        0.05905471        0.04059808        0.01325588
       4         -0.854457        2.000000        0.19668323        0.01391704        0.05732463        0.04448599
       5         -0.846216        2.000000        0.00527147        0.00117175        0.00250503        0.00148380
       6         -0.833144        2.000000        0.00586338        0.00277850        0.00153534        0.00119665
       7         -0.812042        2.000000        0.03409716        0.00680399        0.01111613        0.00632605
       8         -0.762677        2.000000        0.07070416        0.01967361        0.01211091        0.00648708
       9         -0.754421        2.000000        0.07305265        0.00914556        0.02105025        0.00937487
      10         -0.707073        2.000000        0.03906172        0.00660097        0.00790669        0.00520387
      11         -0.679949        2.000000        0.07617725        0.01141982        0.01068517        0.00849988
      12         -0.672457        2.000000        0.10919819        0.01071194        0.02119362        0.00669678
      13         -0.668614        2.000000        0.09693596        0.01470121        0.01195292        0.00703014
      14         -0.659583        2.000000        0.05489741        0.00804932        0.00500805        0.00660453
      15         -0.636312        2.000000        0.06457906        0.00877526        0.00642313        0.00645897
      16         -0.594056        2.000000        0.06131431        0.00603852        0.00632890        0.00290749
      17         -0.574755        2.000000        0.07419814        0.00458078        0.00674417        0.00452796
      18         -0.556826        2.000000        0.06381188        0.00692189        0.00318097        0.00787034
      19         -0.550231        2.000000        0.08609112        0.00690406        0.00764111        0.00357944
      20         -0.540723        2.000000        0.10740876        0.00351242        0.01102279        0.00098379
      21         -0.535959        2.000000        0.09975550        0.00779361        0.00532647        0.00462971
      22         -0.506084        2.000000        0.07488113        0.00854868        0.00331569        0.00597591
      23         -0.494468        2.000000        0.09359780        0.00254040        0.00738580        0.00239860
      24         -0.484371        2.000000        0.13689255        0.00418435        0.00870987        0.00508305
      25         -0.477392        2.000000        0.09210173        0.00407130        0.00425638        0.00452492
      26         -0.468689        2.000000        0.13398355        0.00550836        0.00260300        0.00675335
      27         -0.466548        2.000000        0.17169091        0.00352479        0.00465724        0.00437006
      28         -0.448651        2.000000        0.16835647        0.00211043        0.00681934        0.00106760
      29         -0.443162        2.000000        0.15963448        0.00272254        0.00679360        0.00181035
      30         -0.441405        2.000000        0.17091902        0.00503906        0.00483440        0.00339432
      31         -0.416674        2.000000        0.00411581        0.00107707        0.00105968        0.00071637
      32         -0.413788        2.000000        0.00150384        0.00083285        0.00046113        0.00133321
      33         -0.406571        2.000000        0.13838642        0.00259462        0.00222549        0.00423476
      34         -0.400052        2.000000        0.09936654        0.00302302        0.00235482        0.00480990
      35         -0.392910        2.000000        0.23150666        0.00180372        0.00233746        0.00084849
      36         -0.386942        2.000000        0.25522249        0.00168302        0.00127986        0.00068680
      37         -0.378452        2.000000        0.06412577        0.00239027        0.00212612        0.00266772
      38         -0.364337        2.000000        0.07547033        0.00464063        0.00487985        0.00362566
      39         -0.359871        2.000000        0.10491771        0.00331186        0.00406866        0.00175645
      40         -0.351911        2.000000        0.03802692        0.00353967        0.00527496        0.00646472
      41         -0.349012        2.000000        0.10610381        0.00278182        0.00195901        0.00219449
      42         -0.347421        2.000000        0.09160273        0.00361051        0.00193736        0.00730016
      43         -0.341589        2.000000        0.05717528        0.00466433        0.00259439        0.01306444
      44         -0.338281        2.000000        0.05622911        0.00395080        0.00152477        0.01042536
      45         -0.334778        2.000000        0.10061444        0.00673157        0.00179057        0.00284505
      46         -0.328326        2.000000        0.02388459        0.01844511        0.00313564        0.01014370
      47         -0.309257        2.000000        0.12952005        0.00062795        0.00048376        0.00100376
      48         -0.301952        2.000000        0.12999671        0.00058138        0.00101309        0.00245269
      49         -0.296332        2.000000        0.00843270        0.00308170        0.00087213        0.00286154
      50         -0.294866        2.000000        0.11448170        0.00117970        0.00034577        0.00090073
      51         -0.291685        2.000000        0.00059356        0.00275511        0.00268604        0.00549255
      52         -0.276892        2.000000        0.00138882        0.01059645        0.00442498        0.01563636
      53         -0.257039        2.000000        0.00154284        0.01320023        0.00547635        0.01910947
      54         -0.241440        2.000000        0.01503459        0.00169522        0.00056130        0.00078174
      55         -0.240570        2.000000        0.01525101        0.00088324        0.00030244        0.00148926
      56         -0.223788        2.000000        0.00071366        0.00901724        0.00945826        0.00811194
      57         -0.220276        2.000000        0.00121728        0.00995102        0.00602782        0.01647023
      58         -0.209590        2.000000        0.00041494        0.01497837        0.00449050        0.01963954
      59         -0.206905        2.000000        0.00100956        0.00948966        0.00860396        0.01829282
      60         -0.175913        2.000000        0.00287913        0.01297853        0.00682069        0.02389881
      61         -0.159534        2.000000        0.00229957        0.01001588        0.00627746        0.01885876
      62         -0.088483        0.000000        0.00091547        0.00698939        0.00474398        0.00776730
      63         -0.046462        0.000000        0.00238807        0.01494971        0.01010832        0.02098453
      64         -0.028107        0.000000        0.00298808        0.01997437        0.00897579        0.03028138
      65         -0.020917        0.000000        0.00245314        0.01355583        0.00984351        0.02465731
      66         -0.004009        0.000000        0.01784317        0.00372629        0.00485454        0.00464732
      67         -0.002605        0.000000        0.00775475        0.01197205        0.00958200        0.02002653
      68          0.003516        0.000000        0.01041877        0.01328502        0.01685733        0.01809049
      69          0.040058        0.000000        0.04819190        0.01922733        0.02029712        0.01536727
      70          0.048428        0.000000        0.24653643        0.09834609        0.08156097        0.06641012
      71          0.050255        0.000000        0.23259688        0.06403212        0.07841052        0.09645663
      72          0.052510        0.000000        0.05493212        0.01767075        0.01740316        0.00879288
      73          0.064285        0.000000        0.01877983        0.01259171        0.01286956        0.02256100
      74          0.086316        0.000000        0.10073190        0.06729196        0.07679085        0.01831560
      75          0.093089        0.000000        0.14160864        0.08729387        0.06569482        0.04603152
      76          0.097412        0.000000        0.18618953        0.12178375        0.11265707        0.05541180
      77          0.108207        0.000000        0.11789690        0.05515590        0.09028534        0.03863815
      78          0.110249        0.000000        0.14239390        0.03973781        0.10708683        0.04632582
      79          0.111830        0.000000        0.13339287        0.03939508        0.11424214        0.04242379
      80          0.121065        0.000000        0.04949165        0.03516795        0.02717406        0.03181702
      81          0.124509        0.000000        0.03940767        0.03388723        0.01487891        0.04284713
      82          0.135534        0.000000        0.03864472        0.02570703        0.02266718        0.04279318
      83          0.140623        0.000000        0.06328157        0.03890648        0.02517787        0.07376863
      84          0.155289        0.000000        0.21493424        0.14311229        0.11106864        0.02552778
      85          0.161156        0.000000        0.16657448        0.03303290        0.18133801        0.05368900
      86          0.169257        0.000000        0.15652889        0.06368646        0.07649322        0.08310867
      87          0.170457        0.000000        0.12266466        0.07710218        0.07717103        0.05782035
      88          0.178616        0.000000        0.06247610        0.02745022        0.02877957        0.01310729
      89          0.187591        0.000000        0.07142259        0.03828554        0.05479844        0.03639129
      90          0.189097        0.000000        0.02961958        0.02703036        0.02635878        0.01806664
      91          0.191855        0.000000        0.03667748        0.06081654        0.08220871        0.02047716
      92          0.196216        0.000000        0.04575830        0.02601996        0.09361939        0.02847098
      93          0.207790        0.000000        0.07549540        0.05908853        0.03331659        0.04437562
      94          0.209310        0.000000        0.05872725        0.06711148        0.02670294        0.06872551
      95          0.217014        0.000000        0.08324866        0.04489926        0.07372107        0.01671881
      96          0.227070        0.000000        0.07437620        0.02598060        0.04819864        0.03332047
      97          0.229228        0.000000        0.07614582        0.02610319        0.08027144        0.01534657
      98          0.232738        0.000000        0.05058658        0.04185547        0.05289775        0.04370259
      99          0.245427        0.000000        0.04402097        0.03542642        0.05256877        0.03446489
     100          0.256726        0.000000        0.04146127        0.05367330        0.01859009        0.04652801
     101          0.259458        0.000000        0.03068528        0.02250699        0.01981883        0.04054356
     102          0.267277        0.000000        0.04662017        0.07896745        0.05627245        0.03238414
     103          0.273409        0.000000        0.01467110        0.04513297        0.01665849        0.06551983
     104          0.277564        0.000000        0.03760360        0.03326426        0.01283618        0.02376103
     105          0.282921        0.000000        0.07621413        0.07963917        0.04368859        0.04233586
     106          0.286036        0.000000        0.07160482        0.04607498        0.07576566        0.03235078
     107          0.296527        0.000000        0.04247326        0.02355218        0.04782556        0.06742407
     108          0.308482        0.000000        0.09438200        0.05005007        0.02576620        0.01100876
     109          0.311036        0.000000        0.08978896        0.01502803        0.08289563        0.00633971
     110          0.314389        0.000000        0.04887688        0.03683595        0.05195435        0.01942488
     111          0.325102        0.000000        0.04840582        0.03951322        0.04406944        0.02107149
