# Projected DOS for atomic kind C at iteration step i = 0, E(Fermi) =    -0.160585 a.u.
#     MO Eigenvalue [a.u.]      Occupation                 s                py                pz                px               d-2               d-1                d0               d+1               d+2
       1         -1.019999        2.000000        0.15321142        0.05145739        0.10532109        0.13400239        0.02225312        0.01368292        0.00848658        0.02912301        0.00584798
       2         -1.017509        2.000000        0.15618197        0.14474845        0.06107988        0.08362973        0.03884928        0.01719687        0.01177161        0.00630945        0.00301204
       3         -0.858136        2.000000        0.15822412        0.03224242        0.07801259        0.03311813        0.00494217        0.00816221        0.01449331        0.01841778        0.00096140
       4         -0.854841        2.000000        0.14680322        0.05948972        0.05650833        0.02560627        0.01377426        0.01848212        0.00651760        0.00158139        0.00433328
       5         -0.847157        2.000000        0.12924231        0.06128005        0.17959008        0.07814112        0.03419546        0.03088695        0.01964082        0.01810946        0.00613480
       6         -0.834707        2.000000        0.13750141        0.14287859        0.09889169        0.06651943        0.03978944        0.01217096        0.02204465        0.02535344        0.00741066
       7         -0.813359        2.000000        0.31475174        0.12326905        0.06329341        0.14201210        0.01469247        0.01289936        0.00206515        0.01218696        0.00099844
       8         -0.763259        2.000000        0.34882144        0.06823690        0.17120524        0.11345887        0.00876465        0.01044125        0.00229523        0.00529887        0.00374232
       9         -0.755215        2.000000        0.34740195        0.15354927        0.11323198        0.09092402        0.00900472        0.00455534        0.00899875        0.00853846        0.00130183
      10         -0.707174        2.000000        0.35641674        0.12274281        0.06987653        0.15450544        0.00741181        0.01237025        0.00734480        0.00927761        0.00579631
      11         -0.680127        2.000000        0.31866938        0.13765914        0.15632400        0.07560944        0.01131899        0.01250708        0.01093923        0.01539317        0.00798448
      12         -0.672623        2.000000        0.37058247        0.09847252        0.15450449        0.08688809        0.01298106        0.02332082        0.01486968        0.01356168        0.00475411
      13         -0.668840        2.000000        0.34718446        0.12498918        0.13770575        0.07581478        0.01598497        0.01319396        0.01768655        0.02032960        0.00768535
      14         -0.660127        2.000000        0.27225369        0.08615110        0.11805182        0.07928328        0.01397424        0.02052366        0.01539118        0.02441377        0.01464395
      15         -0.637230        2.000000        0.36615658        0.09561043        0.08970997        0.09709907        0.01498735        0.02124826        0.01995074        0.02208990        0.00948849
      16         -0.594151        2.000000        0.21895170        0.17285355        0.08228976        0.21605816        0.00389971        0.01138310        0.00679323        0.01289704        0.00590351
      17         -0.574825        2.000000        0.21797973        0.15640387        0.15770203        0.13856047        0.00578722        0.00525166        0.00511423        0.00478333        0.00266099
      18         -0.557077        2.000000        0.19667234        0.13056830        0.17458185        0.09410310        0.00312919        0.00239323        0.00330467        0.00301475        0.00085962
      19         -0.549658        2.000000        0.23473605        0.14200693        0.16013556        0.07752328        0.00549067        0.00682975        0.00363161        0.00422873        0.00258352
      20         -0.540222        2.000000        0.17646365        0.11256656        0.29806974        0.08110090        0.00658295        0.00671173        0.00708645        0.00907277        0.00361715
      21         -0.535945        2.000000        0.16778143        0.15536534        0.24259724        0.06200871        0.00941380        0.00839458        0.00636954        0.00299998        0.00164805
      22         -0.505022        2.000000        0.13003985        0.12447452        0.17739640        0.11492186        0.00565998        0.00650713        0.00704012        0.00805886        0.00364134
      23         -0.494649        2.000000        0.07998082        0.14099017        0.19496971        0.08970362        0.00814026        0.00782650        0.00759852        0.00567115        0.00270597
      24         -0.485065        2.000000        0.04095286        0.11434436        0.16655692        0.06389509        0.00722113        0.00984102        0.00864078        0.00411630        0.00183848
      25         -0.476557        2.000000        0.12606177        0.10069224        0.15063355        0.06924584        0.00948713        0.01673621        0.01021339        0.01296144        0.00616591
      26         -0.468601        2.000000        0.09594252        0.10782183        0.25423141        0.06658538        0.00512189        0.00802778        0.00642926        0.01278126        0.00524273
      27         -0.467580        2.000000        0.11253896        0.10735052        0.08044604        0.10420848        0.01032070        0.01051670        0.01430805        0.00817777        0.00318239
      28         -0.447447        2.000000        0.08462312        0.08839424        0.10676402        0.10245219        0.01090481        0.01379727        0.01138110        0.00965678        0.00379877
      29         -0.444489        2.000000        0.06365994        0.25894062        0.07761535        0.12320510        0.02226482        0.01278473        0.01664741        0.00665547        0.00422618
      30         -0.441763        2.000000        0.04879219        0.08550812        0.24148358        0.14042902        0.01203068        0.01580080        0.01780127        0.01241749        0.00310313
      31         -0.416120        2.000000        0.00191121        0.18980371        0.10250989        0.22994771        0.00377912        0.00466627        0.01044126        0.00410225        0.01599937
      32         -0.413283        2.000000        0.00145757        0.18461664        0.08972595        0.22727498        0.00414415        0.00708428        0.00760821        0.00574351        0.02257046
      33         -0.406788        2.000000        0.06717253        0.16984080        0.10999935        0.19464547        0.01068987        0.01277911        0.01276432        0.00824986        0.00559190
      34         -0.399841        2.000000        0.02699136        0.17738280        0.16198394        0.18806857        0.00905329        0.01165795        0.01116645        0.01405656        0.00995888
      35         -0.393231        2.000000        0.06078384        0.06743655        0.41748577        0.10086270        0.00393436        0.00604248        0.02528896        0.01747990        0.00536284
      36         -0.384713        2.000000        0.06589299        0.29919990        0.21426093        0.04139533        0.00319038        0.03039164        0.00334368        0.01090123        0.01674553
      37         -0.378474        2.000000        0.02996085        0.17933125        0.20551181        0.18104361        0.00911673        0.01368176        0.01657867        0.01629301        0.00973567
      38         -0.364965        2.000000        0.02120301        0.26393377        0.23944970        0.14787744        0.00482131        0.01527738        0.00948332        0.01033914        0.00529502
      39         -0.360043        2.000000        0.01124465        0.20843882        0.26752090        0.22712505        0.00324045        0.01247015        0.00499497        0.01278523        0.01150082
      40         -0.353121        2.000000        0.00730127        0.30599668        0.14290706        0.26320125        0.00606553        0.01266828        0.01309454        0.01150640        0.00981140
      41         -0.349789        2.000000        0.01498186        0.19692621        0.24482151        0.15980513        0.00983416        0.02246357        0.01106623        0.00871776        0.01515258
      42         -0.347749        2.000000        0.02429820        0.17375949        0.22464540        0.16236738        0.01573258        0.01043953        0.01087719        0.01733757        0.01488550
      43         -0.342056        2.000000        0.01184383        0.13517800        0.16608237        0.29973964        0.01252487        0.01771193        0.00636904        0.00614743        0.01616483
      44         -0.338534        2.000000        0.01637306        0.19387678        0.12544050        0.23697941        0.00818915        0.00924586        0.02390530        0.01240189        0.01415369
      45         -0.335208        2.000000        0.01887392        0.18572544        0.18909829        0.23644253        0.02283299        0.00982174        0.01348616        0.01639178        0.01257610
      46         -0.328262        2.000000        0.00682423        0.20127647        0.10240467        0.23804575        0.00361663        0.01216288        0.01174024        0.01315631        0.03062954
      47         -0.309626        2.000000        0.02539388        0.15779308        0.10144218        0.15523893        0.01143587        0.01779187        0.01220787        0.01315244        0.00846743
      48         -0.301649        2.000000        0.01530732        0.07373058        0.28026857        0.12072957        0.01795431        0.00734693        0.03310275        0.02010045        0.00523634
      49         -0.296514        2.000000        0.00156061        0.12913528        0.04529620        0.16074374        0.00609700        0.02363810        0.02737466        0.01800558        0.01837503
      50         -0.295234        2.000000        0.01993667        0.21311279        0.09252308        0.08395486        0.00644539        0.02963221        0.00752359        0.01417402        0.01384506
      51         -0.292233        2.000000        0.00102836        0.10196759        0.09117432        0.15468713        0.00899009        0.00501347        0.02584022        0.02095554        0.03324974
      52         -0.277083        2.000000        0.00108048        0.22247109        0.15232234        0.28498072        0.00580908        0.01046772        0.02067128        0.01500667        0.03338694
      53         -0.257692        2.000000        0.00128431        0.16251516        0.09519166        0.21185290        0.00585512        0.01060648        0.02513428        0.01737959        0.04357048
      54         -0.241602        2.000000        0.05179065        0.02471600        0.09568369        0.02389832        0.01006463        0.01903824        0.04123424        0.00580847        0.00230512
      55         -0.239762        2.000000        0.05189012        0.05902194        0.06662015        0.02848848        0.00834398        0.03669451        0.01246715        0.00324080        0.01146424
      56         -0.224275        2.000000        0.00147667        0.13642450        0.15990159        0.14258711        0.01530753        0.00794319        0.04999448        0.01214761        0.01534331
      57         -0.220676        2.000000        0.00118357        0.18540064        0.13922572        0.22678295        0.00721345        0.01676645        0.02214377        0.01652646        0.05517515
      58         -0.209657        2.000000        0.00021981        0.26604796        0.07705862        0.33657759        0.00418593        0.01632394        0.01220868        0.01431446        0.05671882
      59         -0.206630        2.000000        0.00039179        0.18260457        0.17017703        0.31114332        0.00993853        0.01740745        0.02383063        0.00736946        0.04800581
      60         -0.176549        2.000000        0.00059792        0.19231790        0.10721568        0.27213106        0.00804117        0.01127258        0.02511657        0.01652958        0.03790925
      61         -0.160585        2.000000        0.00047286        0.20694806        0.13274313        0.27635677        0.00740189        0.01184612        0.02493745        0.01601961        0.03737694
      62         -0.088342        0.000000        0.00050766        0.16470429        0.13220523        0.20440672        0.00854438        0.01839002        0.02413452        0.01419749        0.06245456
      63         -0.046500        0.000000        0.00153878        0.23450018        0.15391423        0.29859399        0.01108111        0.01653997        0.03367196        0.01895285        0.05545902
      64         -0.027907        0.000000        0.00254678        0.25159528        0.11896885        0.33279090        0.01540225        0.02632778        0.03616683        0.03312512        0.04657855
      65         -0.020975        0.000000        0.00231117        0.21185222        0.15351681        0.29889141        0.01903745        0.01445970        0.03878690        0.02603622        0.05069105
      66         -0.003811        0.000000        0.09161490        0.09787069        0.05726746        0.11295764        0.01316849        0.02171686        0.01966718        0.01212374        0.01778274
      67         -0.002735        0.000000        0.00575872        0.21358097        0.13772208        0.29149791        0.01141307        0.02555436        0.02655771        0.01783696        0.04785609
      68          0.003843        0.000000        0.01138237        0.16194021        0.15616435        0.27323541        0.01486226        0.02455270        0.02972020        0.02337329        0.04960978
      69          0.040328        0.000000        0.02572210        0.16278081        0.10880829        0.15933483        0.01239457        0.01503575        0.03311390        0.01992038        0.03144876
      70          0.048082        0.000000        0.05443804        0.05291728        0.03787689        0.04008546        0.00652321        0.00980388        0.00519516        0.00872131        0.00412544
      71          0.051530        0.000000        0.04662943        0.06896145        0.12350827        0.09024928        0.02060169        0.02428729        0.01687025        0.03568961        0.00737936
      72          0.051926        0.000000        0.03638490        0.06715540        0.09162222        0.05299458        0.01343008        0.02195535        0.01664470        0.02727318        0.01089344
      73          0.064756        0.000000        0.01037492        0.20773702        0.18194724        0.22556757        0.01203857        0.01244267        0.03544129        0.01486150        0.02398531
      74          0.084857        0.000000        0.04669966        0.08886562        0.11078171        0.05690744        0.03502598        0.05282357        0.02284342        0.03723544        0.02599214
      75          0.092773        0.000000        0.12447720        0.05560090        0.06843224        0.06179314        0.04607354        0.02648961        0.05037361        0.01803139        0.01712261
      76          0.098941        0.000000        0.10604849        0.08279257        0.03518403        0.04658132        0.02618901        0.02864609        0.03352039        0.00975191        0.01288295
      77          0.108081        0.000000        0.17610175        0.06478154        0.08134307        0.04909781        0.01116564        0.02807292        0.02347738        0.02513375        0.00811940
      78          0.109517        0.000000        0.15454703        0.06647687        0.06427753        0.07359849        0.03690061        0.03578027        0.05221605        0.02332069        0.01091722
      79          0.111607        0.000000        0.17371351        0.08154879        0.08451870        0.07287510        0.02926949        0.03406140        0.02540834        0.01523008        0.01593270
      80          0.120156        0.000000        0.24169526        0.10537972        0.06604262        0.12635192        0.04354797        0.02424530        0.00800755        0.03231321        0.01009091
      81          0.124547        0.000000        0.06009438        0.21461603        0.09309461        0.32235631        0.01286103        0.01792881        0.00948621        0.02445227        0.01579171
      82          0.135257        0.000000        0.18597255        0.12230529        0.06970739        0.15921191        0.03264456        0.02698722        0.01217607        0.02869495        0.01724310
      83          0.141256        0.000000        0.13381860        0.10824826        0.12844324        0.21622755        0.03603716        0.01181886        0.00760179        0.03407140        0.01131790
      84          0.152314        0.000000        0.12431867        0.08781026        0.05649384        0.02098843        0.00784961        0.03032081        0.00409978        0.01109863        0.01800030
      85          0.160349        0.000000        0.17638355        0.03593531        0.12583786        0.03650667        0.00384829        0.01804360        0.02756137        0.03381710        0.00439626
      86          0.168502        0.000000        0.24391235        0.05287902        0.07660733        0.03917703        0.03041317        0.02885658        0.02469136        0.01154328        0.00456241
      87          0.171618        0.000000        0.29899797        0.06049752        0.05824158        0.05037929        0.03797277        0.02388539        0.01761278        0.02284346        0.00621970
      88          0.177155        0.000000        0.14945842        0.05538699        0.12595528        0.07070313        0.03307914        0.02363757        0.02435612        0.04483886        0.00989319
      89          0.186800        0.000000        0.25267204        0.06444909        0.10174136        0.03476678        0.06725321        0.02936652        0.01438700        0.03991654        0.00616981
      90          0.188782        0.000000        0.33544449        0.05343188        0.03607808        0.05155510        0.09347115        0.04634943        0.03694171        0.04701223        0.00611221
      91          0.191787        0.000000        0.35462966        0.05334885        0.06047780        0.02282976        0.07570500        0.04300204        0.01513337        0.04096180        0.01533095
      92          0.196023        0.000000        0.27328019        0.04469385        0.08526854        0.04970413        0.05753989        0.03313448        0.03153943        0.04707515        0.00804059
      93          0.207042        0.000000        0.21266132        0.07697949        0.05704145        0.07284591        0.07711583        0.05049221        0.06965959        0.03067038        0.00989226
      94          0.208248        0.000000        0.10468334        0.06471686        0.08587367        0.06754761        0.03931269        0.03667359        0.03008081        0.04237891        0.01678803
      95          0.217872        0.000000        0.16560124        0.09041536        0.07879424        0.07507896        0.04731015        0.03987391        0.01720711        0.03650841        0.00965439
      96          0.226774        0.000000        0.16446664        0.06847302        0.12763589        0.06384052        0.06340976        0.02945031        0.04193974        0.02986579        0.00985708
      97          0.229259        0.000000        0.18850778        0.11032650        0.04739846        0.06542082        0.05744545        0.07484402        0.02736143        0.03265676        0.01817163
      98          0.232801        0.000000        0.19588414        0.04497667        0.06749433        0.08728309        0.05372324        0.04736829        0.03550422        0.05076778        0.01394534
      99          0.244265        0.000000        0.29811478        0.07371947        0.07574994        0.07274507        0.01667276        0.04099730        0.01726766        0.06234663        0.02980145
     100          0.255226        0.000000        0.14482502        0.09254477        0.12867190        0.09023824        0.03696215        0.03299331        0.02440820        0.03835547        0.02468741
     101          0.258647        0.000000        0.06103348        0.16536754        0.11482527        0.20321437        0.01720035        0.01701437        0.01534995        0.02210245        0.00464110
     102          0.267489        0.000000        0.16104112        0.09487153        0.08267508        0.09714454        0.03392271        0.02846062        0.02497633        0.02388345        0.00695528
     103          0.273362        0.000000        0.05506445        0.16136449        0.13860714        0.20153784        0.01361962        0.01380339        0.00607893        0.01441729        0.00537004
     104          0.276620        0.000000        0.17364690        0.07091753        0.05750693        0.11389271        0.09753071        0.04145804        0.02060754        0.05015175        0.01153053
     105          0.283351        0.000000        0.12040546        0.07846315        0.12743847        0.04383205        0.01656705        0.04599400        0.02788007        0.01624659        0.01682509
     106          0.286068        0.000000        0.18705349        0.07179192        0.07338131        0.08563025        0.02419309        0.04382987        0.03229716        0.02852362        0.00933988
     107          0.295828        0.000000        0.06041464        0.14745965        0.06583199        0.13934080        0.02389527        0.01492632        0.01311354        0.01123290        0.00786126
     108          0.308400        0.000000        0.15188294        0.09576025        0.08060202        0.07201797        0.07330255        0.04428592        0.03317408        0.03523124        0.01198561
     109          0.310582        0.000000        0.11701685        0.09840696        0.11166790        0.05173718        0.04037905        0.08886852        0.02855976        0.04389722        0.01843921
     110          0.314193        0.000000        0.06972680        0.08064659        0.11306125        0.06573864        0.02103338        0.06460108        0.01707874        0.02568550        0.00795019
     111          0.324018        0.000000        0.09788521        0.11614775        0.07785065        0.06420973        0.04505674        0.02690437        0.05017214        0.03258727        0.01102619
