# Projected DOS for atomic kind C at iteration step i = 0, E(Fermi) =    -0.161576 a.u.
#     MO Eigenvalue [a.u.]      Occupation                 s                py                pz                px               d-2               d-1                d0               d+1               d+2
       1         -1.017702        2.000000        0.15441324        0.05143528        0.10388397        0.13385120        0.02262485        0.01350185        0.00824002        0.02869073        0.00560347
       2         -1.016578        2.000000        0.15619474        0.14435848        0.06090762        0.08379257        0.03884978        0.01709061        0.01179440        0.00630918        0.00298951
       3         -0.855781        2.000000        0.16016568        0.03306879        0.07575104        0.03361163        0.00509758        0.00803680        0.01435564        0.01844627        0.00093313
       4         -0.853136        2.000000        0.15248821        0.05904890        0.05675775        0.02659116        0.01380668        0.01870599        0.00665783        0.00160848        0.00442142
       5         -0.847332        2.000000        0.12908916        0.06132533        0.18044560        0.07683745        0.03415228        0.03043492        0.01973014        0.01827195        0.00615278
       6         -0.836232        2.000000        0.13465911        0.14492839        0.09873674        0.06729758        0.03984884        0.01253810        0.02221174        0.02515068        0.00738761
       7         -0.814513        2.000000        0.31575197        0.12241142        0.06359756        0.14192770        0.01494246        0.01306640        0.00207279        0.01198836        0.00094579
       8         -0.763697        2.000000        0.34702062        0.06819728        0.17174495        0.11361104        0.00879722        0.01049281        0.00227471        0.00534917        0.00374284
       9         -0.755914        2.000000        0.34459009        0.15495665        0.11463150        0.09028560        0.00894012        0.00458502        0.00914740        0.00839905        0.00128869
      10         -0.707241        2.000000        0.35673236        0.12324781        0.07000596        0.15400777        0.00733585        0.01241909        0.00738546        0.00947225        0.00584945
      11         -0.680703        2.000000        0.31486857        0.13546985        0.16092792        0.07471279        0.01153760        0.01247934        0.01088628        0.01575007        0.00827951
      12         -0.673004        2.000000        0.37035842        0.09974220        0.15506100        0.08629718        0.01279298        0.02360250        0.01478297        0.01367533        0.00474950
      13         -0.669288        2.000000        0.34647259        0.12662687        0.13741142        0.07558044        0.01614025        0.01325540        0.01794616        0.02039442        0.00768630
      14         -0.660694        2.000000        0.27637830        0.08543631        0.11639814        0.08059477        0.01368393        0.02059088        0.01538501        0.02411475        0.01438043
      15         -0.637946        2.000000        0.36728235        0.09612058        0.09061726        0.09708883        0.01499239        0.02154821        0.02001746        0.02233139        0.00945869
      16         -0.594174        2.000000        0.21939516        0.17512557        0.08322547        0.21935411        0.00389747        0.01132716        0.00680755        0.01318668        0.00596374
      17         -0.575119        2.000000        0.21843460        0.15692338        0.15849349        0.13986204        0.00570823        0.00525999        0.00495434        0.00464689        0.00272181
      18         -0.557545        2.000000        0.19764737        0.12464869        0.17508121        0.09345794        0.00326615        0.00250890        0.00325713        0.00287635        0.00077356
      19         -0.548943        2.000000        0.23673265        0.13975559        0.16205033        0.07878702        0.00559507        0.00691408        0.00368050        0.00405231        0.00242256
      20         -0.539677        2.000000        0.17725933        0.12635377        0.28885916        0.07825423        0.00653567        0.00693364        0.00668135        0.00887632        0.00366629
      21         -0.536184        2.000000        0.16654545        0.15080154        0.25039108        0.06300823        0.00953612        0.00821918        0.00677551        0.00331576        0.00160396
      22         -0.503786        2.000000        0.13246657        0.12230166        0.17663123        0.11272314        0.00583844        0.00674632        0.00705250        0.00808999        0.00360932
      23         -0.494435        2.000000        0.08481906        0.14177113        0.19929437        0.08738737        0.00809543        0.00791981        0.00742915        0.00597614        0.00286735
      24         -0.485194        2.000000        0.04467119        0.11962536        0.16750178        0.06179278        0.00707606        0.00904848        0.00898306        0.00417752        0.00180053
      25         -0.475794        2.000000        0.11955626        0.09995650        0.14959181        0.07271555        0.00940257        0.01643812        0.00979857        0.01195630        0.00605288
      26         -0.468709        2.000000        0.09354363        0.10555918        0.24958173        0.07898279        0.00465286        0.00861557        0.00622317        0.01322772        0.00525725
      27         -0.467817        2.000000        0.10403438        0.11987207        0.08342672        0.10904579        0.01089748        0.00984872        0.01446836        0.00819271        0.00335350
      28         -0.448127        2.000000        0.09624188        0.15864281        0.06490411        0.14850729        0.01280675        0.01362547        0.01356684        0.01064696        0.00488239
      29         -0.444026        2.000000        0.05263960        0.17921438        0.12234405        0.08264547        0.01909035        0.01279415        0.01580237        0.00678705        0.00291110
      30         -0.441292        2.000000        0.04746089        0.08392288        0.23069061        0.11949308        0.01262945        0.01579806        0.01697736        0.01170980        0.00297054
      31         -0.415768        2.000000        0.00210988        0.19360700        0.09597458        0.23628563        0.00353955        0.00449572        0.00929029        0.00462191        0.01673142
      32         -0.412858        2.000000        0.00144250        0.18219696        0.09545854        0.22742808        0.00424026        0.00736622        0.00845773        0.00520750        0.02135907
      33         -0.407270        2.000000        0.06816839        0.17280182        0.10936150        0.19443869        0.01092694        0.01259691        0.01296591        0.00814340        0.00566308
      34         -0.399886        2.000000        0.02722047        0.18340211        0.15692751        0.18918401        0.00905380        0.01201335        0.01054860        0.01368511        0.01002399
      35         -0.393425        2.000000        0.06085507        0.06684234        0.41444114        0.10257290        0.00394348        0.00609572        0.02518224        0.01741165        0.00538630
      36         -0.383855        2.000000        0.06655508        0.29972737        0.20637513        0.04837654        0.00367682        0.03005653        0.00452458        0.01148335        0.01647434
      37         -0.378396        2.000000        0.02889525        0.18297760        0.20540807        0.17051014        0.00874504        0.01375060        0.01634640        0.01624109        0.01009833
      38         -0.365708        2.000000        0.02186695        0.25338250        0.24870820        0.14091473        0.00480434        0.01535913        0.00985620        0.01083467        0.00567502
      39         -0.360532        2.000000        0.01087635        0.25164533        0.26614744        0.19123463        0.00308500        0.01303574        0.00430476        0.01268151        0.01059402
      40         -0.354216        2.000000        0.00692475        0.25277347        0.14965213        0.31610034        0.00585485        0.01392648        0.01391901        0.01072995        0.01034113
      41         -0.350851        2.000000        0.01113650        0.20100127        0.25131779        0.16333008        0.00898338        0.02045890        0.01003784        0.00841890        0.01693575
      42         -0.348400        2.000000        0.02596701        0.18823456        0.21517485        0.15270192        0.01713414        0.01095754        0.01200126        0.01657385        0.01363788
      43         -0.342408        2.000000        0.01454478        0.12957222        0.17025840        0.28504608        0.01435527        0.01730788        0.00676573        0.00618493        0.01556598
      44         -0.338803        2.000000        0.01719623        0.17358008        0.12826436        0.26598689        0.01061298        0.00685908        0.02516113        0.01409808        0.01277527
      45         -0.335717        2.000000        0.01454947        0.18723014        0.19493173        0.22816383        0.02018249        0.01164095        0.01125845        0.01589508        0.01654226
      46         -0.327896        2.000000        0.00761717        0.21459657        0.09326598        0.24340675        0.00319050        0.01259755        0.01197679        0.01332647        0.02923619
      47         -0.310428        2.000000        0.02497513        0.16758519        0.10008383        0.14519657        0.01054634        0.01864466        0.01114594        0.01330775        0.00981990
      48         -0.301649        2.000000        0.01481795        0.07925464        0.27484493        0.12417330        0.01779652        0.00795160        0.03366160        0.01928768        0.00568470
      49         -0.296535        2.000000        0.00228767        0.13693985        0.04833177        0.15246165        0.00630354        0.02352426        0.02453544        0.01951858        0.01861831
      50         -0.295845        2.000000        0.01978558        0.18385991        0.10265997        0.08847545        0.00592312        0.02717411        0.01050546        0.01240100        0.01394678
      51         -0.292707        2.000000        0.00114444        0.10647837        0.08752732        0.14902463        0.00894816        0.00558687        0.02572262        0.02218014        0.03274222
      52         -0.277163        2.000000        0.00117191        0.22029228        0.15138774        0.28378908        0.00577602        0.01071526        0.02095153        0.01500038        0.03289391
      53         -0.258154        2.000000        0.00135179        0.16166395        0.09480489        0.21355952        0.00584138        0.01051533        0.02476043        0.01739357        0.04337667
      54         -0.241702        2.000000        0.05192515        0.02338286        0.09612980        0.02395733        0.01002474        0.01838334        0.04239329        0.00597734        0.00205231
      55         -0.238942        2.000000        0.05130363        0.05959615        0.06562138        0.02962510        0.00841913        0.03744786        0.01185802        0.00327357        0.01189014
      56         -0.224884        2.000000        0.00129179        0.13440699        0.16001916        0.13854023        0.01529230        0.00793733        0.05050841        0.01209443        0.01499790
      57         -0.220934        2.000000        0.00132250        0.18444667        0.14027223        0.22437619        0.00715312        0.01701693        0.02191323        0.01655719        0.05549537
      58         -0.209796        2.000000        0.00016779        0.26560530        0.07531111        0.33765419        0.00415205        0.01675646        0.01215073        0.01460862        0.05674502
      59         -0.206382        2.000000        0.00041333        0.18200836        0.17013766        0.31023342        0.00962984        0.01776225        0.02366056        0.00735945        0.04803136
      60         -0.177216        2.000000        0.00062194        0.19019526        0.10645911        0.27037008        0.00805360        0.01137412        0.02528762        0.01647448        0.03731927
      61         -0.161576        2.000000        0.00048260        0.20713810        0.13142176        0.27572978        0.00738424        0.01184988        0.02464545        0.01606478        0.03742461
      62         -0.088439        0.000000        0.00044757        0.16392206        0.13211757        0.20574044        0.00853836        0.01848370        0.02403876        0.01423851        0.06330206
      63         -0.046532        0.000000        0.00151880        0.23387156        0.15296987        0.30073795        0.01097564        0.01659500        0.03362300        0.01945322        0.05579618
      64         -0.027771        0.000000        0.00244847        0.24833833        0.12497348        0.33209652        0.01618204        0.02574331        0.03720796        0.03349370        0.04620850
      65         -0.021029        0.000000        0.00240567        0.21447226        0.14751558        0.29741602        0.01793931        0.01560339        0.03766303        0.02610478        0.05104426
      66         -0.003386        0.000000        0.08677841        0.10598613        0.05526082        0.12708165        0.01303557        0.02026312        0.02073672        0.01211823        0.02077471
      67         -0.002915        0.000000        0.00745430        0.21044746        0.13818544        0.28731973        0.01179982        0.02528020        0.02577992        0.01744298        0.04756027
      68          0.004102        0.000000        0.01387291        0.15786354        0.15720864        0.26276791        0.01445914        0.02578277        0.02906157        0.02452379        0.04756817
      69          0.040232        0.000000        0.02832169        0.15853351        0.10681933        0.15406620        0.01235839        0.01506131        0.03202243        0.01909334        0.03022236
      70          0.046754        0.000000        0.05451790        0.05554172        0.04067587        0.04334851        0.00634497        0.01032084        0.00613210        0.00832327        0.00451974
      71          0.049886        0.000000        0.03878173        0.05393576        0.07542939        0.04533042        0.00795440        0.01393637        0.01850776        0.01745928        0.00974913
      72          0.051621        0.000000        0.04461586        0.08450939        0.14839165        0.09228221        0.02649254        0.03080020        0.01801493        0.04505621        0.00905353
      73          0.065353        0.000000        0.00928073        0.20477655        0.17787711        0.23388133        0.01132399        0.01310621        0.03629906        0.01545295        0.02443947
      74          0.084912        0.000000        0.04540682        0.08464281        0.11984511        0.05445204        0.03842668        0.04561049        0.02768462        0.03653216        0.02329325
      75          0.092679        0.000000        0.09914924        0.05118221        0.06636032        0.06624690        0.03954407        0.02794610        0.04542551        0.01771597        0.01808746
      76          0.099716        0.000000        0.12588383        0.07644167        0.03746255        0.04876056        0.02373455        0.03174489        0.02990203        0.01362558        0.01646211
      77          0.107656        0.000000        0.18144200        0.06753694        0.07542118        0.05133022        0.01008283        0.03243909        0.02584765        0.02686087        0.00955367
      78          0.108115        0.000000        0.11789662        0.08463327        0.05836908        0.07127916        0.03632795        0.03716872        0.05081404        0.01955163        0.01141955
      79          0.113017        0.000000        0.19078984        0.07699966        0.07941604        0.07370911        0.03445628        0.02954088        0.02446409        0.01717094        0.01655503
      80          0.119906        0.000000        0.26273353        0.09338345        0.06693392        0.10515875        0.04539368        0.02487957        0.00824535        0.03172861        0.00804469
      81          0.124964        0.000000        0.05244111        0.21366644        0.09467097        0.33327136        0.01201800        0.01841312        0.00912338        0.02468398        0.01585957
      82          0.135143        0.000000        0.19244942        0.12088702        0.06406643        0.14385344        0.03469157        0.02774902        0.01169560        0.02885957        0.01694057
      83          0.142248        0.000000        0.12049163        0.11782637        0.13096150        0.22804788        0.03565176        0.01290550        0.00852059        0.03248290        0.01171884
      84          0.149995        0.000000        0.12714091        0.09529244        0.06183093        0.01806347        0.00784897        0.02835569        0.00306472        0.00929050        0.01781884
      85          0.159187        0.000000        0.16302087        0.03369989        0.13327742        0.03885854        0.00296656        0.01576295        0.02959869        0.03372622        0.00418603
      86          0.167614        0.000000        0.25809757        0.05200395        0.07461677        0.03857176        0.03429346        0.02915488        0.02318936        0.01218995        0.00469618
      87          0.173707        0.000000        0.31240629        0.05647547        0.06365821        0.04641258        0.04224905        0.02046495        0.01320557        0.04265074        0.00739203
      88          0.175745        0.000000        0.14734646        0.05456672        0.11893322        0.07718335        0.03035733        0.02669073        0.02897349        0.02855883        0.00832983
      89          0.186041        0.000000        0.24581993        0.06878689        0.10154665        0.03646644        0.06350037        0.03033150        0.01427961        0.03749512        0.00632051
      90          0.188486        0.000000        0.32821351        0.05527607        0.03658269        0.05436711        0.09317033        0.04738504        0.03549103        0.04586622        0.00595481
      91          0.192078        0.000000        0.35071180        0.05497164        0.05721168        0.02771096        0.08012747        0.04187537        0.01642855        0.03894545        0.01496093
      92          0.195776        0.000000        0.27397022        0.04909451        0.08164009        0.05145337        0.06150767        0.03314081        0.03358268        0.04727847        0.00830720
      93          0.206517        0.000000        0.20602722        0.08276833        0.04382122        0.06369721        0.06961299        0.05415400        0.03822106        0.03943415        0.01154931
      94          0.207589        0.000000        0.12334860        0.05917202        0.09614916        0.07146464        0.04375851        0.03380715        0.06236618        0.03362308        0.01651870
      95          0.219328        0.000000        0.17124753        0.09099901        0.07601927        0.06777142        0.04637438        0.04147522        0.01345710        0.03805822        0.01081961
      96          0.226428        0.000000        0.15809916        0.07204732        0.12992313        0.06391874        0.06313438        0.02663281        0.04268494        0.02746932        0.00928558
      97          0.229807        0.000000        0.19272382        0.10037353        0.04840575        0.06858608        0.05874518        0.07279006        0.02681246        0.03772730        0.01655929
      98          0.232946        0.000000        0.19456272        0.04502253        0.06865750        0.09092859        0.05180379        0.04494685        0.03381536        0.04915526        0.01450996
      99          0.242783        0.000000        0.29623961        0.06966259        0.07951330        0.07134229        0.01696956        0.03895919        0.01847025        0.06054777        0.02884900
     100          0.253535        0.000000        0.15965227        0.08519581        0.12325701        0.07921819        0.03991214        0.03472504        0.02719588        0.04176415        0.02624185
     101          0.257931        0.000000        0.04584729        0.17435931        0.12402108        0.21421170        0.01274367        0.01402963        0.01243410        0.01792025        0.00403051
     102          0.267907        0.000000        0.15491420        0.09067247        0.08483337        0.09317004        0.03435270        0.02735831        0.02480287        0.02388067        0.00638737
     103          0.273078        0.000000        0.05634136        0.16051092        0.13901148        0.20090925        0.01326919        0.01256564        0.00600647        0.01512144        0.00544405
     104          0.275791        0.000000        0.16685292        0.07530591        0.05649270        0.12226121        0.09964301        0.03887911        0.02134168        0.04786818        0.01079186
     105          0.283886        0.000000        0.14204188        0.08542716        0.10948381        0.04078431        0.01706193        0.04814796        0.03477399        0.01929171        0.01696650
     106          0.286251        0.000000        0.17020291        0.06989057        0.08684381        0.08694932        0.02532121        0.04275221        0.02487851        0.02856405        0.00977295
     107          0.295265        0.000000        0.08103877        0.14621156        0.06375116        0.13544703        0.02512876        0.02003367        0.01269587        0.01245731        0.00771425
     108          0.308923        0.000000        0.14245406        0.07996631        0.11552320        0.05792304        0.05180450        0.07230971        0.03038354        0.03557554        0.01401281
     109          0.311565        0.000000        0.10584486        0.10484697        0.08134960        0.06616342        0.05495678        0.06634079        0.03043594        0.03643086        0.01712593
     110          0.314671        0.000000        0.07130246        0.08438606        0.11168419        0.07051915        0.02349016        0.06204269        0.02169956        0.02890148        0.00620403
     111          0.323519        0.000000        0.09275376        0.12211953        0.07699393        0.06284166        0.04455841        0.03043670        0.05262936        0.03150823        0.01154991
