# Projected DOS for atomic kind S at iteration step i = 0, E(Fermi) =    -0.159275 a.u.
#     MO Eigenvalue [a.u.]      Occupation                 s                py                pz                px               d-2               d-1                d0               d+1               d+2
       1         -1.043404        2.000000        0.00226099        0.00347118        0.00003228        0.00353566        0.00022353        0.00002617        0.00004882        0.00000122        0.00000463
       2         -1.027581        2.000000        0.00131873        0.00097878        0.00059270        0.00262303        0.00003432        0.00000677        0.00000001        0.00009005        0.00002328
       3         -0.844966        2.000000        0.00082733        0.00036429        0.00046379        0.00000225        0.00000039        0.00002977        0.00000104        0.00000557        0.00001774
       4         -0.834418        2.000000        0.00087509        0.00017453        0.00024436        0.00000143        0.00001537        0.00001472        0.00000003        0.00000185        0.00000267
       5         -0.832379        2.000000        0.00094016        0.00000702        0.00037527        0.00014618        0.00000166        0.00000109        0.00000369        0.00001959        0.00000047
       6         -0.826805        2.000000        0.00474281        0.00012850        0.00148814        0.00041489        0.00002960        0.00001624        0.00000809        0.00009487        0.00000103
       7         -0.810231        2.000000        0.14275700        0.01068132        0.02616509        0.00184023        0.00106953        0.00158445        0.00010740        0.00120939        0.00006565
       8         -0.765963        2.000000        0.00001253        0.00317920        0.00037976        0.00470369        0.00004967        0.00016099        0.00006770        0.00037801        0.00018923
       9         -0.759959        2.000000        0.00699808        0.00007756        0.00155043        0.00079470        0.00003122        0.00011596        0.00014173        0.00013633        0.00000069
      10         -0.708041        2.000000        0.00002394        0.02035682        0.00188753        0.02827448        0.00036675        0.00129616        0.00050156        0.00290078        0.00158019
      11         -0.692787        2.000000        0.02903410        0.00044964        0.00183571        0.00049225        0.00104564        0.00020462        0.00057526        0.00000318        0.00002092
      12         -0.679430        2.000000        0.01058725        0.00301664        0.00021870        0.00258819        0.00000081        0.00035259        0.00001688        0.00061296        0.00035067
      13         -0.674203        2.000000        0.07985211        0.00153105        0.00177273        0.00024356        0.00038596        0.00020283        0.00014015        0.00006322        0.00005671
      14         -0.657680        2.000000        0.09172889        0.00068277        0.00231582        0.00025120        0.00002394        0.00010404        0.00004214        0.00000092        0.00003905
      15         -0.632913        2.000000        0.00026750        0.00650769        0.00043181        0.00742499        0.00010757        0.00088120        0.00020603        0.00168769        0.00107400
      16         -0.594113        2.000000        0.04298015        0.00041272        0.00172458        0.00018770        0.00092627        0.00022878        0.00042312        0.00000951        0.00008316
      17         -0.580231        2.000000        0.00027164        0.00072895        0.00017047        0.00207418        0.00000395        0.00002688        0.00001382        0.00005131        0.00005354
      18         -0.558423        2.000000        0.00040861        0.00008642        0.00062507        0.00011517        0.00000690        0.00001225        0.00000875        0.00000256        0.00000039
      19         -0.551776        2.000000        0.00073836        0.00103340        0.00021918        0.00053367        0.00003488        0.00009918        0.00003648        0.00021540        0.00015282
      20         -0.544348        2.000000        0.00502465        0.00011526        0.00150981        0.00081961        0.00005059        0.00005013        0.00000425        0.00005808        0.00004100
      21         -0.534350        2.000000        0.00014665        0.00022198        0.00000811        0.00033073        0.00000134        0.00000029        0.00000308        0.00000794        0.00000048
      22         -0.501417        2.000000        0.02593068        0.00048846        0.01132265        0.00527993        0.00000119        0.00001290        0.00013040        0.00047770        0.00003685
      23         -0.493394        2.000000        0.00067008        0.02087565        0.00196908        0.02787977        0.00040787        0.00059421        0.00041367        0.00140338        0.00076871
      24         -0.479098        2.000000        0.00306790        0.01112030        0.00396989        0.00135795        0.00022988        0.00108900        0.00018336        0.00021004        0.00051321
      25         -0.471664        2.000000        0.00673694        0.00021944        0.00513010        0.00262483        0.00004726        0.00000026        0.00021706        0.00074210        0.00011088
      26         -0.464600        2.000000        0.05488929        0.02561475        0.02778006        0.00047990        0.00000561        0.00313855        0.00038050        0.00003821        0.00046666
      27         -0.462257        2.000000        0.00302751        0.01164033        0.00453990        0.02127633        0.00004400        0.00070483        0.00031160        0.00245370        0.00131297
      28         -0.451433        2.000000        0.00376002        0.00124362        0.00019128        0.00041533        0.00000014        0.00002120        0.00002952        0.00025060        0.00002374
      29         -0.446787        2.000000        0.00009467        0.00234997        0.00099570        0.00459801        0.00042050        0.00000010        0.00046537        0.00042954        0.00013186
      30         -0.438439        2.000000        0.00078538        0.00109702        0.00040546        0.00023714        0.00048469        0.00025328        0.00027925        0.00000081        0.00005924
      31         -0.428676        2.000000        0.00001456        0.00231644        0.00232486        0.00376599        0.00005321        0.00004741        0.00009579        0.00019282        0.00035503
      32         -0.417277        2.000000        0.00064439        0.00168413        0.00268419        0.00061316        0.00012504        0.00009218        0.00019773        0.00001198        0.00017290
      33         -0.406197        2.000000        0.00012621        0.01854743        0.00121916        0.01451355        0.00022681        0.00144781        0.00051167        0.00237558        0.00184598
      34         -0.399865        2.000000        0.00211264        0.00005873        0.00014336        0.00053415        0.00007981        0.00000230        0.00000192        0.00017505        0.00006999
      35         -0.397735        2.000000        0.00130782        0.00031623        0.00023991        0.00091653        0.00006913        0.00022187        0.00000069        0.00058351        0.00023272
      36         -0.391280        2.000000        0.00000053        0.00323894        0.00095861        0.00392211        0.00001085        0.00009213        0.00005243        0.00009695        0.00009812
      37         -0.374591        2.000000        0.00024063        0.02076384        0.00718556        0.02835521        0.00000067        0.00033496        0.00016739        0.00031565        0.00047524
      38         -0.370561        2.000000        0.00225793        0.00057655        0.00870189        0.00017951        0.00064788        0.00012249        0.00015685        0.00000691        0.00000056
      39         -0.362265        2.000000        0.00457442        0.00683773        0.00005242        0.00173340        0.00205109        0.00002374        0.00160028        0.00030909        0.00015961
      40         -0.359282        2.000000        0.00132380        0.01710402        0.00476659        0.00182977        0.00038272        0.00105172        0.00046590        0.00083563        0.00165898
      41         -0.349460        2.000000        0.00140872        0.01335245        0.05034131        0.01628072        0.00083147        0.00000227        0.00168570        0.00089414        0.00000356
      42         -0.345820        2.000000        0.00260917        0.01471915        0.00026709        0.02558305        0.00000370        0.00000309        0.00096917        0.00055855        0.00004114
      43         -0.342403        2.000000        0.00124976        0.00766864        0.01045827        0.00243692        0.00020344        0.00000323        0.00008015        0.00000562        0.00000045
      44         -0.333398        2.000000        0.00041792        0.00329941        0.00013458        0.01164241        0.00000191        0.00028190        0.00000067        0.00059290        0.00008669
      45         -0.331732        2.000000        0.00000254        0.01567799        0.00071422        0.10095213        0.00043576        0.00004284        0.00021101        0.00101131        0.00037631
      46         -0.325755        2.000000        0.00060799        0.02256959        0.02268036        0.00093788        0.00029910        0.00025994        0.00107314        0.00002030        0.00012819
      47         -0.314441        2.000000        0.01845964        0.06633021        0.09651738        0.00397720        0.00041656        0.00012211        0.00005696        0.00006066        0.00026187
      48         -0.308700        2.000000        0.00032871        0.00597379        0.00242574        0.00459836        0.00016014        0.00048442        0.00001328        0.00110335        0.00051094
      49         -0.299646        2.000000        0.04660105        0.08588970        0.15805060        0.03503601        0.00229427        0.00003581        0.00023004        0.00181404        0.00018115
      50         -0.296048        2.000000        0.00682779        0.00521042        0.03530459        0.00028956        0.00034617        0.00005371        0.00000768        0.00049647        0.00001694
      51         -0.290000        2.000000        0.00138959        0.00015680        0.01224447        0.00053358        0.00012977        0.00009393        0.00001114        0.00000066        0.00012842
      52         -0.273166        2.000000        0.00005933        0.00015411        0.00014182        0.00115949        0.00001640        0.00104179        0.00010246        0.00023895        0.00351126
      53         -0.254717        2.000000        0.00005450        0.00381129        0.00379895        0.00402944        0.00000782        0.00000675        0.00008112        0.00005695        0.00002753
      54         -0.250267        2.000000        0.00026889        0.00026395        0.00027570        0.00015087        0.00002545        0.00006801        0.00000010        0.00009955        0.00003119
      55         -0.235443        2.000000        0.00011358        0.00048460        0.00045546        0.00225826        0.00004126        0.00000242        0.00002156        0.00001936        0.00004467
      56         -0.230510        2.000000        0.00000352        0.12596641        0.12551493        0.16677855        0.00002428        0.00000024        0.00006797        0.00002518        0.00009177
      57         -0.222173        2.000000        0.00005003        0.00756771        0.00752798        0.00971548        0.00003711        0.00042383        0.00002625        0.00015661        0.00142525
      58         -0.215845        2.000000        0.00000459        0.01212903        0.01025452        0.01496860        0.00000390        0.00068682        0.00007471        0.00022862        0.00158572
      59         -0.209108        2.000000        0.00005367        0.00181347        0.00255746        0.00266993        0.00000453        0.00171236        0.00007884        0.00057773        0.00411626
      60         -0.176458        2.000000        0.00002007        0.00900314        0.00859997        0.00913289        0.00005412        0.00001098        0.00012346        0.00003366        0.00000681
      61         -0.159275        2.000000        0.00003589        0.00004285        0.00003059        0.00028043        0.00000494        0.00124422        0.00007567        0.00039560        0.00298442
      62         -0.092426        0.000000        0.00000408        0.04133081        0.03385657        0.04621734        0.00210369        0.00059600        0.00809545        0.00214381        0.00005558
      63         -0.043111        0.000000        0.00004094        0.00005306        0.00007731        0.00051495        0.00005386        0.00000794        0.00000214        0.00017062        0.00000060
      64         -0.029283        0.000000        0.00010210        0.00404432        0.00151691        0.00331389        0.00030571        0.00041214        0.00313243        0.00047788        0.00006259
      65         -0.017535        0.000000        0.00000201        0.00027933        0.00031235        0.00002331        0.00003673        0.00010004        0.00008845        0.00001598        0.00001840
      66         -0.007199        0.000000        0.00013797        0.00014891        0.00072012        0.02269305        0.00139427        0.00076452        0.00073266        0.00731480        0.00219186
      67         -0.002088        0.000000        0.00049915        0.04386001        0.00141745        0.04296423        0.00437617        0.00961483        0.00382228        0.01901165        0.03065088
      68         -0.000610        0.000000        0.00071106        0.09723382        0.00477845        0.10280026        0.00656227        0.04149420        0.01101023        0.06358887        0.02985318
      69          0.036532        0.000000        0.02558087        0.03068391        0.00273997        0.01660816        0.00162190        0.00967467        0.01921460        0.01012903        0.00014853
      70          0.039125        0.000000        0.00048650        0.00000170        0.00124715        0.00072229        0.00041842        0.00000236        0.00000056        0.00069286        0.00055376
      71          0.043721        0.000000        0.00512287        0.00107492        0.00172015        0.00285962        0.00033379        0.00019681        0.00038731        0.00298392        0.00000180
      72          0.056270        0.000000        0.06094618        0.00320667        0.08769176        0.00169587        0.04470386        0.00271741        0.01054232        0.01008365        0.00165473
      73          0.068444        0.000000        0.00394356        0.00134960        0.00031067        0.00075998        0.00011458        0.01040076        0.00039535        0.00706325        0.03115099
      74          0.082364        0.000000        0.00149156        0.00115840        0.00041326        0.00099583        0.00027487        0.00003620        0.00001540        0.00004197        0.00131707
      75          0.093352        0.000000        0.00183919        0.01075473        0.00710979        0.00413400        0.00432210        0.00349074        0.00000000        0.00128044        0.00006410
      76          0.097133        0.000000        0.00424408        0.00405135        0.00525958        0.00330967        0.00122024        0.00152432        0.00040790        0.00288441        0.00043791
      77          0.109284        0.000000        0.00126741        0.00255579        0.00383535        0.00435335        0.00003892        0.00089042        0.00093350        0.00171158        0.00083859
      78          0.112245        0.000000        0.00038342        0.00414943        0.00306425        0.00376026        0.00144822        0.00069823        0.00003361        0.00200249        0.00002315
      79          0.117551        0.000000        0.00179670        0.00041519        0.00146559        0.00692776        0.00862305        0.00100737        0.00123892        0.00377565        0.00002344
      80          0.123429        0.000000        0.00035332        0.00746269        0.01828252        0.00384043        0.00127420        0.02283629        0.00908361        0.00757975        0.00309026
      81          0.127290        0.000000        0.00137134        0.00067726        0.00488504        0.00220456        0.01446987        0.00001278        0.00331287        0.00212947        0.00055432
      82          0.132077        0.000000        0.00027980        0.00286251        0.00585541        0.00097170        0.00240252        0.00166906        0.00037188        0.00388607        0.00076128
      83          0.140803        0.000000        0.00084891        0.00100460        0.00075718        0.00152381        0.00448474        0.00000006        0.00093923        0.00839528        0.00065603
      84          0.153372        0.000000        0.00120694        0.00043814        0.00170812        0.00008051        0.00017614        0.00087006        0.00019895        0.00015769        0.00006170
      85          0.155991        0.000000        0.00283686        0.00150020        0.00266091        0.00013736        0.00009436        0.00158871        0.00034380        0.00014004        0.00023723
      86          0.170550        0.000000        0.01133954        0.00074346        0.00092271        0.00014015        0.00004281        0.00007978        0.00007998        0.00012053        0.00000146
      87          0.174290        0.000000        0.00187660        0.00079385        0.00579747        0.00081300        0.00003669        0.00288487        0.00149388        0.00161599        0.00000114
      88          0.179240        0.000000        0.01534666        0.00266346        0.00544304        0.00060208        0.03169709        0.00483754        0.00142633        0.01889655        0.00006933
      89          0.187047        0.000000        0.01672687        0.00154342        0.01522419        0.00520753        0.01438022        0.00476499        0.00881942        0.00019997        0.00176662
      90          0.191689        0.000000        0.00279701        0.00131871        0.00064990        0.00116213        0.00171097        0.00142250        0.00072870        0.00059343        0.00197805
      91          0.194483        0.000000        0.00440414        0.01061004        0.02053067        0.00226687        0.01364927        0.03299354        0.01695014        0.00327095        0.00477733
      92          0.198222        0.000000        0.00268628        0.00202450        0.00689172        0.00071845        0.00012273        0.01002191        0.00713331        0.00260765        0.00000147
      93          0.201220        0.000000        0.02036131        0.00006236        0.00080255        0.00031395        0.00147095        0.00023888        0.00050611        0.00002083        0.00111839
      94          0.211392        0.000000        0.00107400        0.00043728        0.00007478        0.00200233        0.00028957        0.00008325        0.00001602        0.00053034        0.00001532
      95          0.220624        0.000000        0.00325070        0.00282230        0.01156889        0.00078312        0.00816929        0.00574228        0.00626548        0.00116658        0.00275293
      96          0.221918        0.000000        0.00018724        0.00726871        0.00560632        0.00101005        0.00674349        0.00023993        0.00044463        0.00023681        0.00004355
      97          0.226028        0.000000        0.01671210        0.01514117        0.02902708        0.00282471        0.01108704        0.02836560        0.02225938        0.00573383        0.00274800
      98          0.239305        0.000000        0.03631114        0.00200487        0.01684111        0.00047597        0.00987854        0.00270231        0.00700327        0.00029598        0.00190529
      99          0.251282        0.000000        0.01116582        0.03591231        0.01397680        0.00848811        0.00796806        0.00022770        0.00024439        0.00635241        0.00059651
     100          0.253970        0.000000        0.00001905        0.04536820        0.05122173        0.04291917        0.00100513        0.00101534        0.00777771        0.00055712        0.00057688
     101          0.258376        0.000000        0.00057110        0.00094632        0.01597340        0.00285677        0.01435354        0.00157896        0.00092901        0.00738998        0.00249148
     102          0.269342        0.000000        0.00097431        0.00706895        0.00010666        0.00350274        0.00024232        0.00027355        0.00025901        0.00027597        0.00006977
     103          0.271740        0.000000        0.00153587        0.00332719        0.00819701        0.00652241        0.00000925        0.00020768        0.00023384        0.00060496        0.00042361
     104          0.276648        0.000000        0.00069201        0.00239065        0.00217204        0.00368787        0.00035323        0.00027232        0.00002583        0.00115852        0.00074745
     105          0.282866        0.000000        0.00359264        0.00215229        0.00949166        0.00135873        0.00281765        0.00184789        0.00470760        0.00079166        0.00010960
     106          0.290559        0.000000        0.00098893        0.00903958        0.02065251        0.03439652        0.00258697        0.00020691        0.00525145        0.00566243        0.00000614
     107          0.299450        0.000000        0.00156357        0.05611533        0.01381775        0.01148328        0.00107358        0.00429826        0.00546010        0.00002614        0.00043321
     108          0.307508        0.000000        0.00140852        0.02431680        0.01387261        0.00491699        0.00000665        0.00000872        0.00002509        0.00359045        0.00096105
     109          0.315541        0.000000        0.00082647        0.00765763        0.00177597        0.01117949        0.00011916        0.00669586        0.00438417        0.00912498        0.00038035
     110          0.318566        0.000000        0.00463385        0.01176884        0.00284325        0.00036267        0.00346166        0.02121749        0.00946840        0.01494781        0.00000099
     111          0.320387        0.000000        0.00178962        0.00228888        0.00294164        0.00528291        0.00756355        0.00652448        0.00464717        0.00048628        0.01232911
