# Projected DOS for atomic kind H at iteration step i = 0, E(Fermi) =    -0.158728 a.u.
#     MO Eigenvalue [a.u.]      Occupation                 s                py                pz                px
       1         -1.044503        2.000000        0.00323724        0.00125533        0.00255528        0.00053433
       2         -1.029039        2.000000        0.00302845        0.00112400        0.00251420        0.00039663
       3         -0.842850        2.000000        0.01113344        0.00466364        0.00222164        0.00203051
       4         -0.835114        2.000000        0.17555170        0.06333381        0.02395586        0.01972179
       5         -0.832397        2.000000        0.12725398        0.01119729        0.03762923        0.02842556
       6         -0.826829        2.000000        0.07502384        0.00643372        0.02168534        0.01619012
       7         -0.809532        2.000000        0.04227225        0.00872829        0.01342969        0.00633331
       8         -0.765911        2.000000        0.07248786        0.01233020        0.01805069        0.00814211
       9         -0.759766        2.000000        0.08119328        0.01674515        0.01729580        0.00816618
      10         -0.708230        2.000000        0.04661494        0.00812986        0.01042564        0.00469935
      11         -0.692609        2.000000        0.07746020        0.01051872        0.01290166        0.00871996
      12         -0.678988        2.000000        0.09838228        0.01215362        0.01668433        0.00482982
      13         -0.673800        2.000000        0.09250239        0.01228689        0.01211863        0.00757360
      14         -0.657711        2.000000        0.05468152        0.00622802        0.00740405        0.00566624
      15         -0.632481        2.000000        0.06401815        0.00878683        0.00887374        0.00549479
      16         -0.594297        2.000000        0.05596144        0.00653170        0.00685352        0.00328022
      17         -0.579877        2.000000        0.06376629        0.00370434        0.00704009        0.00438062
      18         -0.558900        2.000000        0.04991488        0.00609199        0.00364827        0.00534826
      19         -0.551196        2.000000        0.11190669        0.00664360        0.01070911        0.00085108
      20         -0.544469        2.000000        0.11306329        0.00350170        0.01049759        0.00276062
      21         -0.533695        2.000000        0.08243209        0.00575391        0.00389092        0.00559992
      22         -0.501714        2.000000        0.05408857        0.00641506        0.00402380        0.00577005
      23         -0.494082        2.000000        0.09728163        0.00170783        0.00813001        0.00324880
      24         -0.479295        2.000000        0.11783809        0.00522173        0.00658096        0.00479334
      25         -0.471307        2.000000        0.12297649        0.00383187        0.00396101        0.00342973
      26         -0.463602        2.000000        0.14557149        0.00530261        0.00180620        0.00589561
      27         -0.462392        2.000000        0.14623041        0.00312414        0.00261230        0.00329788
      28         -0.452357        2.000000        0.16470536        0.00425032        0.00710476        0.00163582
      29         -0.446040        2.000000        0.17762567        0.00329643        0.01324509        0.00217388
      30         -0.437391        2.000000        0.19231095        0.00152431        0.00610469        0.00198705
      31         -0.428917        2.000000        0.00236077        0.00095433        0.00063089        0.00064068
      32         -0.417732        2.000000        0.00201016        0.00098874        0.00045864        0.00096911
      33         -0.405727        2.000000        0.16149968        0.00256326        0.00229083        0.00308202
      34         -0.399398        2.000000        0.16221835        0.00256846        0.00413687        0.00302339
      35         -0.395646        2.000000        0.21953452        0.00137377        0.00273615        0.00242825
      36         -0.391939        2.000000        0.21628672        0.00198822        0.00301991        0.00159109
      37         -0.374467        2.000000        0.05752278        0.00236953        0.00339325        0.00339531
      38         -0.370071        2.000000        0.06157745        0.00343037        0.00575966        0.00271531
      39         -0.361724        2.000000        0.06629340        0.00407204        0.00292409        0.00249932
      40         -0.359455        2.000000        0.05707177        0.00363426        0.00409502        0.00185221
      41         -0.349065        2.000000        0.05047972        0.00362435        0.00222186        0.00772363
      42         -0.345269        2.000000        0.11044367        0.00213110        0.00222134        0.00439928
      43         -0.341197        2.000000        0.16342880        0.00229502        0.00092269        0.00211391
      44         -0.333645        2.000000        0.01652652        0.01160587        0.00544185        0.01313266
      45         -0.331511        2.000000        0.08892459        0.00298521        0.00204143        0.00366051
      46         -0.325561        2.000000        0.03411049        0.01001353        0.00457953        0.01115049
      47         -0.314218        2.000000        0.13936711        0.00079163        0.00086081        0.00150727
      48         -0.308791        2.000000        0.14844478        0.00055564        0.00140163        0.00145718
      49         -0.299258        2.000000        0.05343675        0.00089347        0.00134143        0.00157087
      50         -0.295287        2.000000        0.01316947        0.00241857        0.00139373        0.00321717
      51         -0.289930        2.000000        0.00184186        0.00795237        0.00161787        0.00679497
      52         -0.273243        2.000000        0.00145368        0.01044726        0.00533244        0.01729936
      53         -0.254358        2.000000        0.00144534        0.01254648        0.00572623        0.01963032
      54         -0.250873        2.000000        0.01404085        0.00100011        0.00075426        0.00161206
      55         -0.235668        2.000000        0.01126515        0.00278047        0.00034419        0.00063395
      56         -0.230573        2.000000        0.00040619        0.00818810        0.00646929        0.01113797
      57         -0.221908        2.000000        0.00052295        0.01347031        0.00580235        0.01697459
      58         -0.215723        2.000000        0.00039652        0.00981564        0.00693409        0.01850669
      59         -0.209149        2.000000        0.00107084        0.01059502        0.00676198        0.02082925
      60         -0.176432        2.000000        0.00282866        0.01307699        0.00726858        0.02587851
      61         -0.158728        2.000000        0.00223873        0.00941523        0.00587563        0.01917596
      62         -0.093159        0.000000        0.00083623        0.00493425        0.00367645        0.00764552
      63         -0.043018        0.000000        0.00242750        0.01624411        0.01187847        0.02403859
      64         -0.029114        0.000000        0.00241922        0.01928958        0.01311190        0.02799274
      65         -0.017931        0.000000        0.00077593        0.01533876        0.00750847        0.02106131
      66         -0.007070        0.000000        0.00567620        0.00901449        0.00830483        0.01892361
      67         -0.002041        0.000000        0.00932089        0.00599487        0.01075223        0.01669954
      68         -0.001101        0.000000        0.01109931        0.00788103        0.00557170        0.01090749
      69          0.036162        0.000000        0.02563727        0.00404067        0.01261172        0.00793153
      70          0.040354        0.000000        0.27202262        0.16167896        0.07950283        0.04281199
      71          0.045595        0.000000        0.26377192        0.03537849        0.17735575        0.03987067
      72          0.055412        0.000000        0.03537835        0.00942215        0.00521995        0.00708755
      73          0.068173        0.000000        0.00502557        0.01333105        0.01214962        0.01956429
      74          0.082076        0.000000        0.18912197        0.14855380        0.06352885        0.06396825
      75          0.094230        0.000000        0.09498650        0.02540384        0.08828233        0.04870537
      76          0.097521        0.000000        0.13573775        0.03509494        0.05216714        0.08024617
      77          0.106015        0.000000        0.12753222        0.11324102        0.05568827        0.03556592
      78          0.112623        0.000000        0.13992423        0.05145961        0.08641834        0.08546950
      79          0.116860        0.000000        0.09839956        0.04377875        0.05065262        0.03978206
      80          0.121712        0.000000        0.06797925        0.03020900        0.08068529        0.01924998
      81          0.125550        0.000000        0.06166903        0.04090852        0.02003338        0.04403509
      82          0.131162        0.000000        0.01380868        0.02860144        0.01138315        0.03599440
      83          0.138897        0.000000        0.08611511        0.05073113        0.03886231        0.07213261
      84          0.153147        0.000000        0.18081672        0.13805749        0.08891480        0.05021570
      85          0.154965        0.000000        0.20796566        0.02358997        0.18920194        0.08821453
      86          0.170193        0.000000        0.12355755        0.07124097        0.06986341        0.05237239
      87          0.173560        0.000000        0.08884916        0.05317928        0.07047085        0.05780046
      88          0.179805        0.000000        0.03467380        0.02600541        0.00438713        0.01352327
      89          0.187266        0.000000        0.04103558        0.03877670        0.06730691        0.02522548
      90          0.191784        0.000000        0.06330037        0.05513356        0.05126552        0.03028612
      91          0.194071        0.000000        0.05597547        0.04885033        0.02818448        0.05158622
      92          0.196537        0.000000        0.07367819        0.06738378        0.06271284        0.03620485
      93          0.200307        0.000000        0.08277090        0.04586948        0.09601458        0.02220169
      94          0.212143        0.000000        0.05372405        0.04735609        0.05248904        0.04222430
      95          0.219753        0.000000        0.07525465        0.05897967        0.05157348        0.03591876
      96          0.221901        0.000000        0.08353602        0.04015536        0.04807724        0.02801934
      97          0.226368        0.000000        0.06322503        0.02588561        0.03636327        0.02057517
      98          0.239443        0.000000        0.05195300        0.04826207        0.04522272        0.02646940
      99          0.251106        0.000000        0.08099184        0.03515108        0.04105283        0.02524588
     100          0.254172        0.000000        0.00799877        0.03230447        0.01361942        0.02695767
     101          0.256480        0.000000        0.08280275        0.03330385        0.05999331        0.03184920
     102          0.267936        0.000000        0.07365130        0.07335842        0.03932875        0.06845598
     103          0.271823        0.000000        0.02260082        0.05437397        0.02890154        0.04446722
     104          0.275304        0.000000        0.06936613        0.05554926        0.06752308        0.03047192
     105          0.283025        0.000000        0.07611968        0.03658556        0.03503267        0.04795204
     106          0.289336        0.000000        0.02911639        0.05318453        0.03941982        0.03102070
     107          0.299294        0.000000        0.04480316        0.01094724        0.04142101        0.06611268
     108          0.306954        0.000000        0.11771749        0.00969583        0.08029828        0.02862242
     109          0.314053        0.000000        0.05266743        0.04801193        0.04001716        0.01462443
     110          0.318629        0.000000        0.04522379        0.03197933        0.04002390        0.06698594
     111          0.319542        0.000000        0.03651977        0.01861382        0.03963060        0.01977859
