# Projected DOS for atomic kind C at iteration step i = 0, E(Fermi) =    -0.159974 a.u.
#     MO Eigenvalue [a.u.]      Occupation                 s                py                pz                px               d-2               d-1                d0               d+1               d+2
       1         -1.041986        2.000000        0.15545415        0.04794820        0.11419239        0.13310086        0.02091344        0.01543494        0.00855967        0.03010443        0.00654117
       2         -1.025935        2.000000        0.15137905        0.14179207        0.07146549        0.07732469        0.03726957        0.01933422        0.01376411        0.00616600        0.00342876
       3         -0.846859        2.000000        0.13289036        0.16836230        0.07838805        0.07213494        0.03627248        0.01112577        0.02283048        0.02574512        0.00855691
       4         -0.834769        2.000000        0.16715164        0.03419358        0.07821498        0.03294485        0.00683896        0.00824336        0.01002024        0.01817769        0.00173858
       5         -0.833309        2.000000        0.17829600        0.03186640        0.13043895        0.08542406        0.03014729        0.03062978        0.01294556        0.01109254        0.00441758
       6         -0.827011        2.000000        0.15135860        0.06919240        0.09676160        0.03405211        0.02189243        0.01628801        0.01206363        0.00699238        0.00268139
       7         -0.811214        2.000000        0.31480972        0.11320882        0.06508111        0.13734300        0.01543204        0.00986292        0.00272191        0.01274839        0.00128401
       8         -0.766030        2.000000        0.32998614        0.11736523        0.12626612        0.09106826        0.00749866        0.00684161        0.00479108        0.00891508        0.00329428
       9         -0.760246        2.000000        0.32049512        0.10338023        0.15070767        0.10880638        0.00803560        0.00870179        0.00419846        0.00807496        0.00446676
      10         -0.708050        2.000000        0.34374231        0.11387675        0.07143233        0.16395300        0.00665844        0.01201271        0.00805210        0.00893668        0.00568135
      11         -0.692679        2.000000        0.34102514        0.10568737        0.14952303        0.09928073        0.01270491        0.01508929        0.01351623        0.01123100        0.00586564
      12         -0.679565        2.000000        0.36553682        0.13492828        0.12934563        0.08229947        0.01489772        0.01701337        0.01718454        0.01448977        0.00596356
      13         -0.674265        2.000000        0.31230973        0.12521192        0.15431416        0.07151934        0.01829531        0.01779201        0.01669455        0.02145580        0.01017640
      14         -0.657941        2.000000        0.29635499        0.08696190        0.11160173        0.08423413        0.01111207        0.01878273        0.01233159        0.02506862        0.01345414
      15         -0.633921        2.000000        0.36791689        0.09428573        0.09429885        0.09834975        0.01349908        0.02193136        0.01779368        0.02576079        0.01350344
      16         -0.594453        2.000000        0.21780787        0.17503906        0.07824080        0.21428687        0.00559509        0.01164861        0.00770247        0.01578677        0.00861438
      17         -0.580676        2.000000        0.21152370        0.16775710        0.14466528        0.14391587        0.00547983        0.00544551        0.00623031        0.00605371        0.00276143
      18         -0.557866        2.000000        0.19547393        0.15039588        0.16301226        0.11859586        0.00267881        0.00295330        0.00317182        0.00408608        0.00140080
      19         -0.551863        2.000000        0.21291931        0.21417167        0.19185787        0.05944768        0.00421552        0.00592580        0.00317625        0.00497008        0.00387343
      20         -0.544199        2.000000        0.19742002        0.09026994        0.31517764        0.08642656        0.00583219        0.00595858        0.00567283        0.00657196        0.00324851
      21         -0.534872        2.000000        0.19871956        0.10868699        0.23599236        0.08861657        0.00891924        0.00633809        0.00808324        0.00335676        0.00087072
      22         -0.501434        2.000000        0.15967586        0.14290279        0.16960031        0.11299009        0.00672650        0.00855206        0.00630718        0.00659698        0.00283254
      23         -0.493217        2.000000        0.09604593        0.10548154        0.17972832        0.12427647        0.00894488        0.00852142        0.00570746        0.00664100        0.00282342
      24         -0.479191        2.000000        0.04997710        0.14081588        0.17928046        0.07799747        0.00700415        0.01009753        0.00749478        0.00629269        0.00237045
      25         -0.471802        2.000000        0.10639076        0.05489763        0.18296862        0.09139872        0.01230996        0.01095104        0.01516841        0.01363019        0.00464429
      26         -0.465055        2.000000        0.07603347        0.15944413        0.19756380        0.03944643        0.00819660        0.01365395        0.00900356        0.00913607        0.00607378
      27         -0.462717        2.000000        0.08920640        0.11937694        0.13990365        0.15757492        0.01159005        0.01559231        0.01236012        0.00957465        0.00472455
      28         -0.450978        2.000000        0.02881882        0.20629110        0.15749136        0.06132096        0.01381320        0.01023649        0.01345376        0.00882230        0.00721895
      29         -0.447964        2.000000        0.05350693        0.08592785        0.15736448        0.11580648        0.01022593        0.01430669        0.01193962        0.01102871        0.00444661
      30         -0.440414        2.000000        0.10303583        0.09691651        0.05945641        0.08779925        0.00837490        0.01633757        0.01167533        0.01198308        0.00563401
      31         -0.428290        2.000000        0.00118869        0.15511830        0.15729753        0.17860436        0.00561472        0.00839274        0.01574051        0.00294612        0.01461773
      32         -0.416830        2.000000        0.00089338        0.19508459        0.06730280        0.23345194        0.00386738        0.00458601        0.00512345        0.00725809        0.02512524
      33         -0.406097        2.000000        0.06664691        0.23104776        0.06843994        0.17683082        0.00931037        0.01955323        0.00873643        0.00785765        0.00639745
      34         -0.399915        2.000000        0.03517674        0.18438734        0.16061348        0.17580771        0.00607629        0.01278617        0.00934983        0.01543590        0.00805179
      35         -0.398494        2.000000        0.05366493        0.23328383        0.26127091        0.08575343        0.00601145        0.01703219        0.00403560        0.01205687        0.01080136
      36         -0.390401        2.000000        0.06052350        0.08615934        0.32117355        0.17891063        0.00980645        0.00465336        0.03200043        0.01617829        0.00243892
      37         -0.374965        2.000000        0.02652463        0.12195266        0.24996245        0.15577236        0.00599408        0.01702504        0.01510557        0.01646211        0.01157745
      38         -0.370999        2.000000        0.02659530        0.18072400        0.26123410        0.12666631        0.00516104        0.01271896        0.01675456        0.01202913        0.00519826
      39         -0.362552        2.000000        0.01022868        0.33912763        0.13149555        0.25582266        0.01042150        0.01058763        0.01156296        0.00538263        0.00404928
      40         -0.359060        2.000000        0.01219181        0.18648444        0.22257138        0.29382459        0.00818929        0.00858480        0.00940566        0.00535994        0.00383309
      41         -0.350237        2.000000        0.01580172        0.19005273        0.18829699        0.29126725        0.01238035        0.01088340        0.01492894        0.00768846        0.01446407
      42         -0.346849        2.000000        0.02167639        0.20473066        0.19518185        0.23118452        0.01705740        0.01314211        0.01617425        0.01026012        0.01267205
      43         -0.343777        2.000000        0.02875946        0.21169925        0.21906916        0.14968016        0.01392283        0.02396898        0.01093269        0.02391783        0.01283590
      44         -0.333364        2.000000        0.00425407        0.21275306        0.17179390        0.28761540        0.00834542        0.01006589        0.00706978        0.01101155        0.02551923
      45         -0.332083        2.000000        0.01744183        0.21011128        0.20388882        0.12648704        0.00727629        0.02329598        0.01519121        0.02683274        0.01911851
      46         -0.325934        2.000000        0.00167627        0.19542010        0.13216327        0.26346558        0.00635611        0.01452042        0.00843816        0.00977564        0.03147872
      47         -0.314619        2.000000        0.01695528        0.20463197        0.16118662        0.10184488        0.00971247        0.02630916        0.01606368        0.01396558        0.00934036
      48         -0.308322        2.000000        0.01228340        0.13414528        0.22904753        0.14014234        0.01523518        0.01711159        0.03329390        0.01725925        0.00851890
      49         -0.299917        2.000000        0.01789160        0.11623653        0.13995466        0.06471991        0.00781766        0.01272592        0.01200483        0.02059894        0.00732131
      50         -0.296790        2.000000        0.00498298        0.09233829        0.11275300        0.13761370        0.00890062        0.01034702        0.02758402        0.00938725        0.03433342
      51         -0.290303        2.000000        0.00083348        0.14734459        0.06639897        0.15733100        0.00797969        0.01879573        0.02422477        0.02322425        0.01802726
      52         -0.273346        2.000000        0.00139657        0.20339374        0.15294221        0.25636456        0.00647988        0.00973873        0.01944253        0.01372536        0.03319985
      53         -0.255196        2.000000        0.00202915        0.15653200        0.09354841        0.19830089        0.00701938        0.00923483        0.01916474        0.01737671        0.04264525
      54         -0.249347        2.000000        0.04858750        0.06958115        0.05788341        0.01500649        0.00675292        0.03985783        0.01226630        0.00191518        0.01111062
      55         -0.235330        2.000000        0.04686577        0.02518873        0.09356025        0.02383370        0.00880250        0.01527843        0.03804201        0.00515968        0.00077254
      56         -0.230255        2.000000        0.00068347        0.13844387        0.10308600        0.18763055        0.01698778        0.00841057        0.04236574        0.01423792        0.01864460
      57         -0.222301        2.000000        0.00051108        0.23249169        0.10090771        0.27095284        0.00646164        0.01893007        0.01924321        0.01392459        0.05338137
      58         -0.216041        2.000000        0.00065335        0.19093994        0.14124693        0.30658550        0.00854051        0.01290072        0.01749912        0.01495576        0.05385420
      59         -0.209202        2.000000        0.00099598        0.19104850        0.15434371        0.25747953        0.01046391        0.01520884        0.02618962        0.00820474        0.04937538
      60         -0.176644        2.000000        0.00109452        0.18215500        0.10902807        0.24107019        0.00667715        0.00983130        0.02407288        0.01571058        0.03640726
      61         -0.159974        2.000000        0.00094395        0.19419837        0.12946692        0.26495062        0.00651946        0.01209312        0.02305259        0.01489347        0.03887852
      62         -0.091622        0.000000        0.00130792        0.17251913        0.12922120        0.19354410        0.00763969        0.02003304        0.02167470        0.01381675        0.06067808
      63         -0.043267        0.000000        0.00190824        0.23654895        0.14861894        0.32531749        0.01660043        0.01841889        0.03424504        0.01899107        0.05487611
      64         -0.029318        0.000000        0.00216497        0.23308357        0.15065101        0.31951221        0.02301846        0.02020274        0.04530156        0.02752425        0.04416613
      65         -0.017407        0.000000        0.00142022        0.23087424        0.12391518        0.29604508        0.01417031        0.02385270        0.03579230        0.02431317        0.05219350
      66         -0.007340        0.000000        0.00470241        0.21725093        0.13900729        0.30676588        0.01221208        0.02283635        0.02516953        0.01399945        0.06002226
      67         -0.002117        0.000000        0.03914353        0.12796859        0.15197788        0.20124582        0.01649776        0.02853395        0.02530793        0.02188070        0.03351987
      68         -0.000115        0.000000        0.06292828        0.15229759        0.06177777        0.14341436        0.01357641        0.01705629        0.02585691        0.00813693        0.03462186
      69          0.037059        0.000000        0.01823315        0.16184057        0.10935323        0.16203580        0.01326371        0.01371694        0.02909778        0.02135782        0.03516338
      70          0.040264        0.000000        0.04324957        0.01328061        0.05030133        0.02582331        0.00357900        0.00173454        0.00830698        0.01445067        0.00478990
      71          0.045011        0.000000        0.03667929        0.05438311        0.04404424        0.03590800        0.00317391        0.01417192        0.00643895        0.01237458        0.00558065
      72          0.056961        0.000000        0.03762119        0.10948108        0.14558224        0.11809656        0.03514349        0.03678449        0.01998975        0.04484206        0.01078045
      73          0.068620        0.000000        0.01461720        0.21340451        0.13332315        0.28665539        0.01584444        0.00898830        0.03512258        0.01734485        0.02550437
      74          0.085264        0.000000        0.09704844        0.07134858        0.06213689        0.06032803        0.04544661        0.04020823        0.02164169        0.02159619        0.00905567
      75          0.092744        0.000000        0.09304350        0.06110534        0.06301738        0.06262475        0.06587523        0.03054700        0.04514648        0.03359555        0.00916009
      76          0.095613        0.000000        0.16686119        0.04215248        0.05566284        0.06518189        0.02004173        0.03241039        0.03046888        0.03303736        0.00845594
      77          0.110215        0.000000        0.12532147        0.06086859        0.08936322        0.06461865        0.02514262        0.02700987        0.01922775        0.02921696        0.01815032
      78          0.112645        0.000000        0.16293169        0.08576806        0.09202608        0.14673879        0.02110141        0.02311470        0.02971736        0.01268763        0.02071267
      79          0.117937        0.000000        0.14010208        0.08339798        0.09047884        0.13629175        0.05009312        0.03491756        0.01229356        0.05585390        0.01237472
      80          0.125057        0.000000        0.18248679        0.08551786        0.09568340        0.09813342        0.02456079        0.03002071        0.02364783        0.02607865        0.01051773
      81          0.128555        0.000000        0.14953169        0.16493982        0.08454328        0.13016480        0.02421744        0.02466479        0.01094255        0.02094353        0.01875029
      82          0.132744        0.000000        0.07993020        0.23379933        0.12541795        0.24984323        0.01342708        0.01842611        0.01846303        0.01456865        0.01568979
      83          0.141776        0.000000        0.21782459        0.07876760        0.07575386        0.09295267        0.03057513        0.02503961        0.01518928        0.02836130        0.01408787
      84          0.152994        0.000000        0.12725947        0.03398949        0.13087560        0.05829942        0.00647145        0.00686487        0.02974112        0.01986087        0.00361065
      85          0.157018        0.000000        0.15319113        0.12445486        0.09985364        0.02543864        0.00451079        0.03560773        0.00513996        0.01653098        0.01764940
      86          0.171966        0.000000        0.27621163        0.04218908        0.05238416        0.05422857        0.04574781        0.03537406        0.02939421        0.01648353        0.01530511
      87          0.174458        0.000000        0.22471797        0.08631127        0.05147478        0.04954727        0.02997262        0.02909474        0.03140897        0.05335858        0.01015612
      88          0.178875        0.000000        0.24356549        0.05470889        0.08153049        0.06529308        0.06928832        0.05531736        0.01772913        0.06241660        0.01289944
      89          0.186848        0.000000        0.32707126        0.04124274        0.06970620        0.03837595        0.05958743        0.02042124        0.02822797        0.03765744        0.00749681
      90          0.191471        0.000000        0.24004320        0.06679913        0.10873013        0.05469493        0.06700690        0.02097450        0.01855981        0.04881496        0.01040146
      91          0.194879        0.000000        0.23248685        0.05117979        0.08441216        0.03551138        0.05111873        0.04942460        0.03022962        0.04087544        0.01094404
      92          0.199102        0.000000        0.29069402        0.06181907        0.07651004        0.02564744        0.05743625        0.04797021        0.01584369        0.03641511        0.01897160
      93          0.201135        0.000000        0.25515133        0.05297936        0.08779921        0.04556267        0.04704923        0.04662287        0.01931131        0.04747447        0.01322891
      94          0.211915        0.000000        0.21246985        0.06977018        0.05415993        0.05144551        0.05407947        0.06031693        0.03906139        0.04850414        0.01199957
      95          0.221430        0.000000        0.22995208        0.07049924        0.06478777        0.03919770        0.06751372        0.03473287        0.03865462        0.03022396        0.00530429
      96          0.222366        0.000000        0.19107809        0.07567476        0.07827133        0.05535097        0.04357519        0.04947640        0.01091978        0.03874402        0.02018717
      97          0.225807        0.000000        0.17799167        0.06997137        0.09999031        0.05537398        0.05840541        0.01987408        0.02519306        0.02977763        0.00564279
      98          0.239485        0.000000        0.25329197        0.08523754        0.08738471        0.07004124        0.03161909        0.03435199        0.01976336        0.04294176        0.02044557
      99          0.251132        0.000000        0.19346493        0.06368652        0.08857043        0.08097943        0.05367079        0.04551049        0.03837273        0.03112249        0.00913610
     100          0.253689        0.000000        0.03552400        0.21346484        0.14724394        0.19564368        0.00416745        0.00915964        0.00468389        0.00935778        0.01214775
     101          0.259272        0.000000        0.21042716        0.04625931        0.09679345        0.07118235        0.02741662        0.04598096        0.01580855        0.06212662        0.02828239
     102          0.270200        0.000000        0.09424379        0.15403323        0.09596850        0.18351145        0.01955189        0.00839130        0.01527235        0.02068858        0.00946551
     103          0.272107        0.000000        0.13857185        0.08691237        0.09899179        0.12479716        0.04099218        0.04653561        0.00872446        0.03591696        0.01140697
     104          0.278121        0.000000        0.19572240        0.09271374        0.05082301        0.07900154        0.03324657        0.03592595        0.03004357        0.02727207        0.01138565
     105          0.283613        0.000000        0.11989541        0.08129702        0.09081672        0.07659064        0.04530553        0.05017723        0.03218716        0.02707774        0.01022620
     106          0.291473        0.000000        0.02038782        0.07410418        0.10937248        0.21544802        0.03054899        0.02047135        0.02940833        0.01420029        0.01344071
     107          0.298955        0.000000        0.04681101        0.16910967        0.08667564        0.09078790        0.03892683        0.03741836        0.04139762        0.02719395        0.01163121
     108          0.307443        0.000000        0.09708173        0.06322672        0.10997063        0.08716073        0.05526705        0.05764320        0.03039431        0.05519074        0.01427656
     109          0.316375        0.000000        0.12201633        0.06547060        0.10521040        0.04065924        0.04101900        0.07820870        0.02795264        0.03198500        0.01035730
     110          0.319161        0.000000        0.05981636        0.08022507        0.13119373        0.06147524        0.04018439        0.02461302        0.05604027        0.05376869        0.01392973
     111          0.321211        0.000000        0.10798704        0.08094280        0.10432188        0.07255778        0.05499025        0.05053666        0.03141263        0.06215504        0.01291866
