# Projected DOS for atomic kind O at iteration step i = 0, E(Fermi) =    -0.161576 a.u.
#     MO Eigenvalue [a.u.]      Occupation                 s                py                pz                px               d-2               d-1                d0               d+1               d+2
       1         -1.017702        2.000000        0.35181599        0.01876263        0.00491365        0.00517594        0.00070470        0.00049507        0.00000743        0.00079100        0.00000491
       2         -1.016578        2.000000        0.34504089        0.00102547        0.01857991        0.00975903        0.00113431        0.00036871        0.00014586        0.00029943        0.00002455
       3         -0.855781        2.000000        0.00115964        0.00018224        0.00026613        0.00063555        0.00003103        0.00000612        0.00000582        0.00001305        0.00000343
       4         -0.853136        2.000000        0.00197037        0.00055641        0.00005338        0.00045200        0.00004646        0.00000020        0.00000678        0.00000198        0.00000006
       5         -0.847332        2.000000        0.09000403        0.00317170        0.01621442        0.00161462        0.00015734        0.00015135        0.00235538        0.00093504        0.00002749
       6         -0.836232        2.000000        0.08377400        0.00863252        0.01213015        0.00132212        0.00002206        0.00243962        0.00014885        0.00011419        0.00080526
       7         -0.814513        2.000000        0.00079752        0.00470832        0.00336080        0.00939603        0.00010611        0.00033806        0.00017940        0.00070136        0.00020493
       8         -0.763697        2.000000        0.00253267        0.00584452        0.01608846        0.02020572        0.00152498        0.00114853        0.00104060        0.00008707        0.00020925
       9         -0.755914        2.000000        0.00546263        0.02237973        0.00507787        0.01046068        0.00169105        0.00074344        0.00140080        0.00014844        0.00009549
      10         -0.707241        2.000000        0.00171739        0.00867386        0.01454946        0.02393573        0.00077233        0.00116254        0.00094801        0.00163348        0.00041139
      11         -0.680703        2.000000        0.00129595        0.02116963        0.01602295        0.02787968        0.00038089        0.00089416        0.00041115        0.00018526        0.00012811
      12         -0.673004        2.000000        0.01020866        0.00720665        0.00489104        0.00745400        0.00065668        0.00023837        0.00019739        0.00033658        0.00015972
      13         -0.669288        2.000000        0.00787482        0.00045163        0.00022002        0.00034255        0.00007577        0.00037300        0.00014180        0.00103601        0.00027393
      14         -0.660694        2.000000        0.00423888        0.01094339        0.00917346        0.01367972        0.00227903        0.00110974        0.00135110        0.00023784        0.00017047
      15         -0.637946        2.000000        0.00650469        0.01095900        0.00441730        0.00801373        0.00146339        0.00068762        0.00096856        0.00038774        0.00025501
      16         -0.594174        2.000000        0.00495870        0.00789906        0.01175327        0.01458401        0.00045976        0.00077313        0.00060695        0.00134718        0.00035952
      17         -0.575119        2.000000        0.00042534        0.05373994        0.04130053        0.06162496        0.00075347        0.00138809        0.00097303        0.00034748        0.00014715
      18         -0.557545        2.000000        0.00781896        0.02356020        0.03325409        0.04291830        0.00062159        0.00036807        0.00035448        0.00059059        0.00040842
      19         -0.548943        2.000000        0.00319833        0.01718145        0.00909996        0.00463157        0.00067080        0.00021173        0.00051004        0.00041677        0.00009978
      20         -0.539677        2.000000        0.01872986        0.01470081        0.03756519        0.00068794        0.00029266        0.00015033        0.00006551        0.00045793        0.00003233
      21         -0.536184        2.000000        0.03285421        0.00892612        0.02899305        0.00201672        0.00052184        0.00007904        0.00000322        0.00020540        0.00000532
      22         -0.503786        2.000000        0.00225854        0.01810569        0.05838251        0.03654243        0.00022966        0.00059009        0.00065900        0.00016057        0.00023206
      23         -0.494435        2.000000        0.00349025        0.01439760        0.04835367        0.00570396        0.00057144        0.00089736        0.00054424        0.00162355        0.00080263
      24         -0.485194        2.000000        0.01386945        0.03638576        0.01257975        0.02346587        0.00058706        0.00038327        0.00037553        0.00078735        0.00032600
      25         -0.475794        2.000000        0.00625572        0.06481509        0.01255622        0.04193644        0.00061095        0.00073283        0.00032058        0.00043685        0.00021853
      26         -0.468709        2.000000        0.00459991        0.00916356        0.00742738        0.00971538        0.00064210        0.00019157        0.00021252        0.00016456        0.00011575
      27         -0.467817        2.000000        0.00498876        0.01100190        0.00048904        0.00460666        0.00085233        0.00019261        0.00024657        0.00010963        0.00003518
      28         -0.448127        2.000000        0.00339531        0.00356025        0.01741926        0.00100581        0.00043336        0.00008542        0.00056610        0.00063289        0.00027683
      29         -0.444026        2.000000        0.02291973        0.03364810        0.07015178        0.00660142        0.00010289        0.00052945        0.00019864        0.00031006        0.00000441
      30         -0.441292        2.000000        0.02713287        0.01282558        0.07899765        0.01514279        0.00048983        0.00045576        0.00006850        0.00013142        0.00006667
      31         -0.415768        2.000000        0.00027390        0.11774684        0.06054178        0.11207240        0.00021052        0.00067842        0.00152559        0.00074222        0.00154818
      32         -0.412858        2.000000        0.00007609        0.11014892        0.07537345        0.13530416        0.00031416        0.00066483        0.00119850        0.00113777        0.00172173
      33         -0.407270        2.000000        0.00452399        0.01560038        0.00626910        0.07081366        0.00073209        0.00016112        0.00017304        0.00079037        0.00018320
      34         -0.399886        2.000000        0.00492321        0.04367063        0.01200741        0.06090629        0.00050759        0.00059560        0.00022694        0.00030950        0.00007749
      35         -0.393425        2.000000        0.00252869        0.00957827        0.00515235        0.00734348        0.00004787        0.00027016        0.00005666        0.00006188        0.00010156
      36         -0.383855        2.000000        0.00356635        0.00646939        0.01046202        0.00313908        0.00003596        0.00002055        0.00009563        0.00033875        0.00011162
      37         -0.378396        2.000000        0.00850745        0.04377188        0.01542070        0.03867296        0.00031700        0.00001216        0.00017214        0.00048864        0.00024424
      38         -0.365708        2.000000        0.01062218        0.04963398        0.01325809        0.03028267        0.00038851        0.00016581        0.00018825        0.00050425        0.00002471
      39         -0.360532        2.000000        0.00058187        0.00511361        0.02496385        0.00284633        0.00040629        0.00033606        0.00043574        0.00005333        0.00006507
      40         -0.354216        2.000000        0.00100411        0.00231729        0.01235202        0.00894902        0.00029548        0.00067102        0.00054573        0.00085707        0.00031131
      41         -0.350851        2.000000        0.01078308        0.01926896        0.02064716        0.01448189        0.00058253        0.00029985        0.00006319        0.00003005        0.00045161
      42         -0.348400        2.000000        0.00908147        0.02678871        0.00499291        0.01481780        0.00013116        0.00030402        0.00000808        0.00131575        0.00154766
      43         -0.342408        2.000000        0.01111370        0.00401055        0.05403991        0.03432293        0.00019356        0.00121056        0.00013863        0.00030171        0.00099343
      44         -0.338803        2.000000        0.00713655        0.01054774        0.05917424        0.02134549        0.00026651        0.00029657        0.00118659        0.00115830        0.00019029
      45         -0.335717        2.000000        0.00283589        0.03628358        0.01408373        0.01070494        0.00029072        0.00024754        0.00016676        0.00057930        0.00045623
      46         -0.327896        2.000000        0.00065256        0.01936240        0.01602623        0.02627946        0.00011352        0.00015723        0.00016640        0.00060796        0.00007882
      47         -0.310428        2.000000        0.00297907        0.01253959        0.00422520        0.00352189        0.00092881        0.00008602        0.00063127        0.00013883        0.00003259
      48         -0.301649        2.000000        0.00976326        0.01965463        0.09555530        0.09939326        0.00014058        0.00111593        0.00016650        0.00133655        0.00013055
      49         -0.296535        2.000000        0.00108430        0.10610598        0.05877599        0.11766084        0.00026463        0.00026877        0.00044387        0.00049578        0.00105829
      50         -0.295845        2.000000        0.01262506        0.12239718        0.05610508        0.02119770        0.00001834        0.00024935        0.00025363        0.00089599        0.00051791
      51         -0.292707        2.000000        0.00000903        0.09309026        0.06990825        0.09403819        0.00037460        0.00013679        0.00088649        0.00012609        0.00001390
      52         -0.277163        2.000000        0.00026581        0.00076647        0.00045731        0.00083978        0.00067550        0.00098066        0.00195217        0.00052617        0.00352884
      53         -0.258154        2.000000        0.00008369        0.00192277        0.00050884        0.00026726        0.00088847        0.00071590        0.00176496        0.00079843        0.00276799
      54         -0.241702        2.000000        0.00164003        0.00747390        0.05162088        0.00144522        0.00010944        0.00098135        0.00090616        0.00004003        0.00003658
      55         -0.238942        2.000000        0.00188473        0.02038108        0.03839296        0.00037152        0.00015872        0.00050390        0.00128358        0.00009881        0.00020512
      56         -0.224884        2.000000        0.00011344        0.00021343        0.00075643        0.00033226        0.00009960        0.00037498        0.00005563        0.00013691        0.00106124
      57         -0.220934        2.000000        0.00005705        0.00054637        0.00219278        0.00028027        0.00003050        0.00015545        0.00000039        0.00001171        0.00030246
      58         -0.209796        2.000000        0.00000180        0.04891012        0.01454458        0.05513305        0.00003331        0.00028292        0.00002600        0.00013388        0.00327439
      59         -0.206382        2.000000        0.00000784        0.04197978        0.04251504        0.03781579        0.00020711        0.00094357        0.00060230        0.00014786        0.00201850
      60         -0.177216        2.000000        0.00001671        0.00191076        0.00098729        0.00190822        0.00052494        0.00031650        0.00106695        0.00047535        0.00129246
      61         -0.161576        2.000000        0.00001773        0.00121410        0.00027570        0.00055805        0.00031319        0.00032506        0.00086226        0.00034973        0.00159600
      62         -0.088439        0.000000        0.00011683        0.01900643        0.00740389        0.01689107        0.00055572        0.00032841        0.00098774        0.00086019        0.00043679
      63         -0.046532        0.000000        0.00111566        0.00787919        0.00545275        0.00896082        0.00075097        0.00033847        0.00238396        0.00150046        0.00121547
      64         -0.027771        0.000000        0.00088393        0.01279857        0.00487111        0.01838655        0.00002260        0.00134696        0.00076744        0.00011330        0.00720155
      65         -0.021029        0.000000        0.00002128        0.02592961        0.01848184        0.04044442        0.00004515        0.00142813        0.00068979        0.00109470        0.00690503
      66         -0.003386        0.000000        0.01346053        0.01057901        0.00554394        0.01068803        0.00378589        0.00171312        0.00273192        0.00048594        0.00016867
      67         -0.002915        0.000000        0.00076417        0.01263125        0.00742163        0.01087306        0.00038975        0.00013865        0.00021387        0.00054997        0.00256301
      68          0.004102        0.000000        0.00101726        0.00156029        0.00358696        0.00250324        0.00180428        0.00152448        0.00019347        0.00013836        0.00117015
      69          0.040232        0.000000        0.01438105        0.00829582        0.01736393        0.01627591        0.00331087        0.00008086        0.00372164        0.00176708        0.00027853
      70          0.046754        0.000000        0.00180118        0.00145993        0.00129018        0.00098444        0.00029152        0.00004349        0.00040199        0.00004603        0.00059661
      71          0.049886        0.000000        0.02950553        0.00257702        0.00220783        0.00101822        0.00070720        0.00016300        0.00005000        0.00033193        0.00015493
      72          0.051621        0.000000        0.04898165        0.01326047        0.00230342        0.01214337        0.00030343        0.00278642        0.00088336        0.00303241        0.00040128
      73          0.065353        0.000000        0.00181020        0.00540916        0.00403089        0.01165370        0.00182579        0.00097726        0.00374760        0.00175908        0.00085025
      74          0.084912        0.000000        0.09937748        0.00844066        0.01126218        0.01065231        0.00046978        0.00259033        0.00009511        0.00220424        0.00129386
      75          0.092679        0.000000        0.02151806        0.00708799        0.00898008        0.02316756        0.00115266        0.00091195        0.00195119        0.00013139        0.00110215
      76          0.099716        0.000000        0.00165697        0.00267654        0.00451743        0.00571836        0.00078741        0.00067677        0.00190151        0.00016378        0.00010714
      77          0.107656        0.000000        0.05378072        0.01913539        0.01625176        0.00495966        0.00190310        0.00464748        0.00354063        0.00024168        0.00090263
      78          0.108115        0.000000        0.02936326        0.00354503        0.00477183        0.01013720        0.00232347        0.00035227        0.00088471        0.00027319        0.00045118
      79          0.113017        0.000000        0.00756107        0.00138596        0.00052868        0.00129915        0.00002054        0.00043170        0.00002081        0.00010740        0.00029128
      80          0.119906        0.000000        0.06795158        0.00184121        0.00963450        0.00175821        0.00248440        0.00168440        0.00080695        0.00023252        0.00089297
      81          0.124964        0.000000        0.00173568        0.00568026        0.00032477        0.00043629        0.00012806        0.00110501        0.00055668        0.00118488        0.00655384
      82          0.135143        0.000000        0.01908516        0.00699245        0.00580632        0.00436670        0.00058315        0.00033179        0.00300504        0.00266408        0.00067942
      83          0.142248        0.000000        0.01922683        0.00781223        0.00033227        0.00112862        0.00010418        0.00152369        0.00121184        0.00001877        0.00250440
      84          0.149995        0.000000        0.00039318        0.00285289        0.00677344        0.00028264        0.00040297        0.00066683        0.00052030        0.00020190        0.00010335
      85          0.159187        0.000000        0.00024749        0.00310525        0.01714087        0.00033439        0.00025970        0.00204468        0.00039386        0.00023792        0.00080359
      86          0.167614        0.000000        0.00129684        0.00013201        0.00264238        0.00118788        0.00080646        0.00038358        0.00037417        0.00013593        0.00028094
      87          0.173707        0.000000        0.00193099        0.00334155        0.00061719        0.00069766        0.00051434        0.00045090        0.00026161        0.00006628        0.00000485
      88          0.175745        0.000000        0.00096162        0.01541859        0.05666798        0.02428646        0.00719924        0.01534868        0.01142942        0.00140152        0.00086224
      89          0.186041        0.000000        0.00019290        0.03275406        0.01572221        0.01233350        0.00087771        0.01025794        0.00924556        0.00041004        0.00034393
      90          0.188486        0.000000        0.00770090        0.00759689        0.00426020        0.00480695        0.00110218        0.00293572        0.00050527        0.00093855        0.00033394
      91          0.192078        0.000000        0.00251016        0.00382992        0.00246099        0.00421117        0.00083147        0.00061075        0.00091488        0.00155330        0.00007776
      92          0.195776        0.000000        0.00372935        0.02599651        0.02102642        0.00986544        0.00718822        0.00117431        0.00344816        0.00107325        0.00009849
      93          0.206517        0.000000        0.00087489        0.00603792        0.01541020        0.00898270        0.00307091        0.00173658        0.00109104        0.00089923        0.00012963
      94          0.207589        0.000000        0.00443503        0.01599940        0.01758284        0.00429144        0.00070231        0.00054829        0.00062957        0.00028354        0.00010861
      95          0.219328        0.000000        0.00279331        0.00503328        0.02889779        0.02875635        0.00866337        0.00331123        0.00404996        0.00585027        0.00332947
      96          0.226428        0.000000        0.00162497        0.02996039        0.02663054        0.01327165        0.00263516        0.00012841        0.00082079        0.00189154        0.00052317
      97          0.229807        0.000000        0.00105596        0.00248270        0.01862206        0.02270675        0.00307254        0.00178857        0.00201467        0.00001429        0.00020822
      98          0.232946        0.000000        0.00140291        0.00530152        0.01297925        0.00658897        0.00708415        0.00262654        0.00214385        0.00066249        0.00151870
      99          0.242783        0.000000        0.00062374        0.00358818        0.01209927        0.00186205        0.00330207        0.00048476        0.00236085        0.00532243        0.00190963
     100          0.253535        0.000000        0.00259900        0.01803895        0.02798528        0.01468084        0.00522423        0.00215974        0.00013776        0.00348914        0.00037006
     101          0.257931        0.000000        0.00205961        0.01290449        0.00664313        0.01090479        0.00271955        0.00014126        0.00047309        0.00005258        0.00095150
     102          0.267907        0.000000        0.00089181        0.00723279        0.00737124        0.00312373        0.00482906        0.00247345        0.00018340        0.00169558        0.00120075
     103          0.273078        0.000000        0.00022778        0.00656902        0.00401148        0.00351817        0.00132752        0.00093575        0.00032741        0.00008779        0.00013604
     104          0.275791        0.000000        0.00126067        0.00900472        0.00713460        0.01140777        0.00365522        0.00400889        0.00138238        0.00213026        0.00016038
     105          0.283886        0.000000        0.00026109        0.00532700        0.00627976        0.00292928        0.00321222        0.00260931        0.00583859        0.00236806        0.00006546
     106          0.286251        0.000000        0.00035535        0.00482740        0.01002429        0.00696766        0.00190918        0.00735547        0.00375321        0.00125643        0.00131406
     107          0.295265        0.000000        0.00153179        0.00051986        0.00606390        0.00671748        0.00227544        0.00513140        0.00284443        0.00036756        0.00012850
     108          0.308923        0.000000        0.00555047        0.01009837        0.00380399        0.00673777        0.00483559        0.00658025        0.00520542        0.00189787        0.00133336
     109          0.311565        0.000000        0.00544360        0.00226649        0.00315889        0.00805656        0.00454034        0.00098194        0.00264262        0.00013203        0.00030325
     110          0.314671        0.000000        0.01259874        0.00329655        0.00681085        0.00990034        0.00034536        0.00540934        0.00178259        0.00042455        0.00078078
     111          0.323519        0.000000        0.00026277        0.00616107        0.00279181        0.00262605        0.00052346        0.00041905        0.00024074        0.00032793        0.00012471
