# Projected DOS for atomic kind O at iteration step i = 0, E(Fermi) =    -0.163299 a.u.
#     MO Eigenvalue [a.u.]      Occupation                 s                py                pz                px               d-2               d-1                d0               d+1               d+2
       1         -1.033870        2.000000        0.33862345        0.02028487        0.00495642        0.00537632        0.00072183        0.00058914        0.00000753        0.00078510        0.00000012
       2         -1.018894        2.000000        0.34888163        0.00063140        0.02069646        0.00816809        0.00094804        0.00044020        0.00027676        0.00027860        0.00004330
       3         -0.849072        2.000000        0.08594195        0.00996936        0.00805977        0.00098450        0.00008321        0.00216837        0.00001410        0.00018298        0.00086832
       4         -0.843950        2.000000        0.06888726        0.00030314        0.00905608        0.00234888        0.00000308        0.00001495        0.00099968        0.00079471        0.00004310
       5         -0.839912        2.000000        0.02555999        0.00211812        0.00635382        0.00043302        0.00012229        0.00005211        0.00095585        0.00037106        0.00002276
       6         -0.839288        2.000000        0.00252981        0.00010185        0.00231684        0.00117214        0.00003709        0.00022406        0.00006982        0.00006939        0.00008844
       7         -0.819275        2.000000        0.00089250        0.00460229        0.00502602        0.01138532        0.00013950        0.00039226        0.00019050        0.00071454        0.00017215
       8         -0.766948        2.000000        0.00116424        0.01337902        0.01760005        0.02180293        0.00172674        0.00136420        0.00143603        0.00005365        0.00017343
       9         -0.761481        2.000000        0.00245136        0.00950472        0.00929145        0.01012307        0.00156354        0.00076425        0.00127504        0.00013112        0.00022225
      10         -0.711290        2.000000        0.00143938        0.01344169        0.01522466        0.02592189        0.00076918        0.00128266        0.00082470        0.00163937        0.00036870
      11         -0.688807        2.000000        0.00187642        0.02677160        0.01934892        0.03301190        0.00076430        0.00089371        0.00075336        0.00013652        0.00005752
      12         -0.677243        2.000000        0.01336898        0.00658764        0.00421416        0.00656047        0.00087776        0.00012707        0.00036066        0.00067179        0.00028434
      13         -0.671263        2.000000        0.01261712        0.00022168        0.00052543        0.00018652        0.00042092        0.00014574        0.00005110        0.00094829        0.00031558
      14         -0.661788        2.000000        0.00046023        0.00736610        0.00640265        0.00779186        0.00158331        0.00136931        0.00124119        0.00038415        0.00018920
      15         -0.639594        2.000000        0.00356309        0.00285961        0.00454454        0.00489776        0.00125117        0.00049816        0.00085579        0.00021161        0.00027537
      16         -0.597292        2.000000        0.00433519        0.01646207        0.01353961        0.01681644        0.00040937        0.00119214        0.00046534        0.00138588        0.00038700
      17         -0.579535        2.000000        0.00020777        0.04740030        0.05387358        0.06755522        0.00078618        0.00134362        0.00106662        0.00032580        0.00009090
      18         -0.557332        2.000000        0.00697494        0.02927264        0.03591644        0.03685276        0.00072269        0.00030674        0.00045408        0.00063902        0.00034548
      19         -0.549623        2.000000        0.00527440        0.01911949        0.00969621        0.00397258        0.00079081        0.00014326        0.00050518        0.00041450        0.00015328
      20         -0.542235        2.000000        0.02206803        0.02356537        0.02935024        0.00076158        0.00038189        0.00021410        0.00009366        0.00022443        0.00007425
      21         -0.538102        2.000000        0.03352760        0.01107717        0.03251877        0.00128444        0.00046959        0.00005920        0.00003154        0.00021954        0.00000738
      22         -0.502396        2.000000        0.00403532        0.03144958        0.07021385        0.01905397        0.00029298        0.00052587        0.00105783        0.00035581        0.00021776
      23         -0.493779        2.000000        0.00275199        0.01553195        0.05042629        0.00398502        0.00060928        0.00088959        0.00056398        0.00197327        0.00109649
      24         -0.480062        2.000000        0.00655975        0.03261794        0.00798913        0.03171397        0.00007048        0.00074524        0.00006716        0.00122761        0.00048947
      25         -0.470850        2.000000        0.00318624        0.04112181        0.02847735        0.03634705        0.00041063        0.00016763        0.00046806        0.00004945        0.00001714
      26         -0.466471        2.000000        0.00295764        0.02678721        0.00833318        0.00630312        0.00068467        0.00029903        0.00029703        0.00003800        0.00003571
      27         -0.460699        2.000000        0.01077376        0.01225778        0.01023769        0.02153378        0.00143887        0.00003501        0.00062860        0.00000910        0.00002255
      28         -0.449306        2.000000        0.02898212        0.00319189        0.08348916        0.01075434        0.00048436        0.00004294        0.00011364        0.00021467        0.00005942
      29         -0.447697        2.000000        0.01605945        0.01717929        0.02415227        0.00295518        0.00045816        0.00001685        0.00027572        0.00070921        0.00019082
      30         -0.442787        2.000000        0.00517579        0.01159478        0.06010454        0.00345740        0.00021947        0.00070162        0.00060181        0.00000767        0.00005553
      31         -0.425303        2.000000        0.00041541        0.13297574        0.07185528        0.10915415        0.00042255        0.00008640        0.00102903        0.00099112        0.00251302
      32         -0.415853        2.000000        0.00005001        0.12220904        0.04072769        0.14416437        0.00021754        0.00189225        0.00152114        0.00082874        0.00068193
      33         -0.407911        2.000000        0.00348643        0.01027143        0.00825534        0.04722369        0.00006052        0.00030988        0.00001809        0.00081560        0.00030467
      34         -0.396858        2.000000        0.00586483        0.04277318        0.00323307        0.04634838        0.00049852        0.00006405        0.00020651        0.00014528        0.00001292
      35         -0.388625        2.000000        0.00269686        0.02589916        0.00051100        0.02379341        0.00000885        0.00000528        0.00000755        0.00010438        0.00004052
      36         -0.386886        2.000000        0.00094785        0.00391119        0.00081232        0.00133116        0.00005713        0.00004438        0.00000875        0.00024594        0.00008273
      37         -0.379067        2.000000        0.00879168        0.05416575        0.01209113        0.03092587        0.00019102        0.00001068        0.00017400        0.00082246        0.00018993
      38         -0.369865        2.000000        0.02275090        0.04427507        0.04879799        0.06590293        0.00072912        0.00071981        0.00017757        0.00084690        0.00015282
      39         -0.362581        2.000000        0.00374030        0.01115993        0.05816978        0.00229214        0.00036020        0.00013540        0.00072430        0.00025396        0.00003005
      40         -0.359781        2.000000        0.00104703        0.00389165        0.01055208        0.00604123        0.00016843        0.00082859        0.00032394        0.00030261        0.00025365
      41         -0.353242        2.000000        0.00304303        0.00591512        0.00675955        0.01522905        0.00002782        0.00017439        0.00036447        0.00023848        0.00261060
      42         -0.348433        2.000000        0.01925548        0.04947606        0.04362246        0.01187970        0.00025553        0.00003014        0.00137936        0.00242295        0.00027671
      43         -0.345890        2.000000        0.01116847        0.00129394        0.03683978        0.02765029        0.00035649        0.00131611        0.00019325        0.00026537        0.00064708
      44         -0.334424        2.000000        0.00135619        0.00317175        0.01068827        0.00658987        0.00136371        0.00064309        0.00000161        0.00022178        0.00023358
      45         -0.333187        2.000000        0.00049420        0.00796039        0.01729302        0.01663634        0.00016735        0.00024976        0.00055555        0.00076326        0.00040278
      46         -0.326611        2.000000        0.00029501        0.02046182        0.02609341        0.05682651        0.00005488        0.00002550        0.00016165        0.00003484        0.00002474
      47         -0.314877        2.000000        0.00182868        0.01861878        0.00776398        0.01616870        0.00097198        0.00014517        0.00021682        0.00046335        0.00017856
      48         -0.305834        2.000000        0.00895466        0.05961869        0.07826136        0.03960868        0.00001736        0.00086313        0.00007622        0.00099711        0.00037107
      49         -0.300456        2.000000        0.00714273        0.01303788        0.09468344        0.06822372        0.00009491        0.00033478        0.00050954        0.00047735        0.00005299
      50         -0.299645        2.000000        0.00488969        0.16130740        0.05299792        0.02575175        0.00030655        0.00032732        0.00131197        0.00003809        0.00022596
      51         -0.293219        2.000000        0.00158019        0.07307652        0.00356148        0.17100035        0.00040695        0.00001247        0.00028670        0.00100334        0.00031718
      52         -0.276670        2.000000        0.00009117        0.00042616        0.00119442        0.00166095        0.00074219        0.00089644        0.00246026        0.00052969        0.00345554
      53         -0.257665        2.000000        0.00007701        0.00043247        0.00074672        0.00014272        0.00081929        0.00043745        0.00225710        0.00102563        0.00291944
      54         -0.241693        2.000000        0.00203306        0.02864835        0.03056661        0.00081449        0.00043245        0.00099021        0.00038210        0.00013749        0.00006430
      55         -0.236109        2.000000        0.00222963        0.00642710        0.04707220        0.00420908        0.00014590        0.00096718        0.00091631        0.00000136        0.00006437
      56         -0.227936        2.000000        0.00012087        0.00047567        0.00067218        0.00153970        0.00009873        0.00049151        0.00010266        0.00018801        0.00143944
      57         -0.223278        2.000000        0.00002891        0.00453193        0.00302049        0.00495402        0.00003169        0.00024528        0.00011537        0.00007043        0.00109246
      58         -0.216374        2.000000        0.00004166        0.03866987        0.01883508        0.05356177        0.00016805        0.00025345        0.00012135        0.00012901        0.00260616
      59         -0.211077        2.000000        0.00006487        0.04138981        0.03456745        0.04231773        0.00007709        0.00062918        0.00038330        0.00011202        0.00137026
      60         -0.178987        2.000000        0.00001704        0.00291254        0.00202783        0.00463161        0.00045189        0.00029021        0.00121365        0.00055805        0.00085311
      61         -0.163299        2.000000        0.00003640        0.00050291        0.00011238        0.00024294        0.00032942        0.00033518        0.00089832        0.00033545        0.00094553
      62         -0.089219        0.000000        0.00010132        0.01438538        0.01015632        0.01705900        0.00030810        0.00055937        0.00153907        0.00064285        0.00046957
      63         -0.045329        0.000000        0.00015374        0.00488068        0.00647212        0.00699261        0.00068924        0.00043423        0.00268972        0.00122688        0.00148913
      64         -0.028682        0.000000        0.00004614        0.01148152        0.00544697        0.01221687        0.00004368        0.00152260        0.00008806        0.00047514        0.00629879
      65         -0.020475        0.000000        0.00057236        0.03891616        0.02072090        0.03952406        0.00018210        0.00232428        0.00057611        0.00067645        0.00657626
      66         -0.008140        0.000000        0.00047087        0.01227410        0.00704604        0.01004345        0.00013975        0.00031014        0.00132632        0.00036210        0.00244456
      67         -0.002957        0.000000        0.01372916        0.00739213        0.00716180        0.00520255        0.00526711        0.00176009        0.00072989        0.00022148        0.00113341
      68          0.001879        0.000000        0.00666331        0.00188179        0.00744301        0.00403159        0.00067637        0.00031966        0.00369021        0.00086701        0.00047423
      69          0.039014        0.000000        0.04340849        0.00915518        0.01981606        0.01089532        0.00408635        0.00003700        0.00308673        0.00247125        0.00017934
      70          0.047164        0.000000        0.00156589        0.00151951        0.00073907        0.00109078        0.00000804        0.00006529        0.00014420        0.00105666        0.00004978
      71          0.053740        0.000000        0.00092698        0.00120473        0.00141122        0.00262780        0.00013253        0.00038716        0.00102710        0.00024964        0.00063224
      72          0.055552        0.000000        0.03905181        0.00556831        0.00445070        0.01417347        0.00076247        0.00106477        0.00344662        0.00163122        0.00039756
      73          0.069711        0.000000        0.03015022        0.00522541        0.00444543        0.00901405        0.00054755        0.00257705        0.00250765        0.00173572        0.00125991
      74          0.085464        0.000000        0.12167180        0.02152002        0.00970772        0.02717765        0.00289422        0.00284407        0.00086176        0.00127450        0.00120761
      75          0.095441        0.000000        0.00582926        0.01035953        0.00577598        0.01925717        0.00210785        0.00221840        0.00143998        0.00078661        0.00056438
      76          0.097080        0.000000        0.00273001        0.01058060        0.00072313        0.01266781        0.00179359        0.00060068        0.00213404        0.00007779        0.00003099
      77          0.101027        0.000000        0.00260250        0.00502105        0.00020924        0.00495524        0.00019725        0.00006752        0.00012022        0.00030242        0.00023096
      78          0.112217        0.000000        0.00302826        0.00239093        0.00088205        0.00049040        0.00026111        0.00013573        0.00039306        0.00010343        0.00171657
      79          0.115813        0.000000        0.05852624        0.01627862        0.00917505        0.00351169        0.00192467        0.00332692        0.00314455        0.00059109        0.00047333
      80          0.118247        0.000000        0.02330275        0.00658490        0.00098026        0.00213378        0.00015594        0.00148563        0.00152403        0.00011930        0.00321938
      81          0.126791        0.000000        0.03583863        0.00721918        0.00219493        0.00207728        0.00210331        0.00201798        0.00010494        0.00051615        0.00274224
      82          0.132526        0.000000        0.03528595        0.00214068        0.00084223        0.00644476        0.00095898        0.00088117        0.00039171        0.00127636        0.00243971
      83          0.137627        0.000000        0.00276277        0.00204283        0.00458094        0.00815600        0.00040465        0.00023557        0.00148042        0.00084227        0.00077882
      84          0.145978        0.000000        0.00288576        0.00222374        0.00532096        0.00049552        0.00129537        0.00140210        0.00014421        0.00019034        0.00056115
      85          0.159965        0.000000        0.00052655        0.00097683        0.00403426        0.00254328        0.00062780        0.00163474        0.00011406        0.00056447        0.00003468
      86          0.168882        0.000000        0.00034779        0.00160771        0.00883501        0.00364897        0.00035146        0.00106616        0.00054109        0.00000068        0.00010603
      87          0.174758        0.000000        0.00014402        0.06085513        0.03450142        0.01754098        0.01109879        0.00354750        0.01024380        0.00013256        0.00036743
      88          0.178921        0.000000        0.00172199        0.01152133        0.00782688        0.01178111        0.00314996        0.00121054        0.00190614        0.00029967        0.00042089
      89          0.186761        0.000000        0.00138179        0.00284312        0.01212338        0.00675385        0.00499812        0.01047583        0.00536137        0.00012034        0.00252495
      90          0.188716        0.000000        0.00468674        0.00439974        0.01008529        0.01027844        0.00040949        0.00623852        0.00544493        0.00234935        0.00128179
      91          0.193319        0.000000        0.00231048        0.00501857        0.03348486        0.03128742        0.00387716        0.00428953        0.00425609        0.00067982        0.00087849
      92          0.196083        0.000000        0.00088502        0.01696077        0.01060317        0.00698861        0.00513022        0.00497439        0.00571154        0.00054552        0.00013563
      93          0.200768        0.000000        0.00029907        0.00899447        0.03228292        0.00687923        0.00050811        0.00314545        0.00250015        0.00071489        0.00029891
      94          0.217239        0.000000        0.00322721        0.00818722        0.00848229        0.00550223        0.00241374        0.00065022        0.00045429        0.00131461        0.00059902
      95          0.217905        0.000000        0.00258342        0.01429831        0.00679702        0.01171713        0.00846734        0.00012650        0.00255138        0.00012276        0.00010944
      96          0.223605        0.000000        0.00496982        0.00368417        0.00525855        0.00844317        0.00182716        0.00121200        0.00036032        0.00027095        0.00013995
      97          0.233070        0.000000        0.00115564        0.00099727        0.01591650        0.02084668        0.00330492        0.00206112        0.00001203        0.00880062        0.00245389
      98          0.240527        0.000000        0.00078969        0.00496183        0.01703991        0.00258628        0.00702092        0.00493269        0.00290280        0.00017938        0.00163154
      99          0.245365        0.000000        0.00382321        0.00867566        0.04048169        0.00775969        0.00072349        0.00211826        0.00160014        0.00043447        0.00020329
     100          0.252235        0.000000        0.00082369        0.01840666        0.00106039        0.00457757        0.00164566        0.00001878        0.00078199        0.00032445        0.00144384
     101          0.255892        0.000000        0.00263720        0.01507689        0.04303566        0.00522039        0.00304193        0.00332269        0.00021328        0.00592168        0.00050067
     102          0.269628        0.000000        0.00088628        0.01237299        0.00437143        0.00090544        0.00049740        0.00029167        0.00022255        0.00027703        0.00023164
     103          0.272820        0.000000        0.00152744        0.01562867        0.01789876        0.00935877        0.00377434        0.00091171        0.00040206        0.00528854        0.00143137
     104          0.274861        0.000000        0.00405263        0.00309520        0.00655915        0.00788126        0.00229998        0.00135069        0.00165360        0.00125607        0.00011132
     105          0.286179        0.000000        0.00004573        0.00115327        0.00347050        0.00099179        0.00000216        0.00617617        0.00183088        0.00018497        0.00013010
     106          0.290768        0.000000        0.00086723        0.00183631        0.00483978        0.00422249        0.00044772        0.00529146        0.00525656        0.00020775        0.00025646
     107          0.296722        0.000000        0.00127957        0.00233466        0.00314144        0.00051821        0.00003477        0.00281702        0.00116795        0.00091826        0.00108384
     108          0.308782        0.000000        0.01750145        0.00837425        0.01200216        0.00445099        0.00210895        0.01005959        0.00385167        0.00156644        0.00052115
     109          0.309500        0.000000        0.00293851        0.00329670        0.00321748        0.00625853        0.00455452        0.00203980        0.00356207        0.00004981        0.00029571
     110          0.321823        0.000000        0.01021890        0.00224018        0.00166220        0.00346624        0.00053586        0.00387295        0.00107018        0.00020125        0.00000224
     111          0.324838        0.000000        0.00337068        0.00160646        0.00295593        0.00154683        0.00109203        0.00415825        0.00217957        0.00168711        0.00081187
