# Projected DOS for atomic kind C at iteration step i = 0, E(Fermi) =    -0.163461 a.u.
#     MO Eigenvalue [a.u.]      Occupation                 s                py                pz                px               d-2               d-1                d0               d+1               d+2
       1         -1.016200        2.000000        0.15677510        0.14339079        0.06174887        0.08252469        0.03914038        0.01726204        0.01196643        0.00620791        0.00295238
       2         -1.014239        2.000000        0.15532789        0.05112801        0.10188987        0.13466640        0.02291439        0.01313965        0.00778269        0.02815369        0.00517271
       3         -0.848685        2.000000        0.17000787        0.03868726        0.06723676        0.03553252        0.00570554        0.00773875        0.01434674        0.01877531        0.00087719
       4         -0.848415        2.000000        0.16684909        0.05564280        0.05706997        0.03244353        0.01432064        0.01999790        0.00681855        0.00204008        0.00466727
       5         -0.845458        2.000000        0.13117619        0.06265019        0.18062775        0.06956635        0.03413001        0.02808345        0.01985244        0.01819079        0.00594057
       6         -0.838889        2.000000        0.12807511        0.14566598        0.10211028        0.06834686        0.03964936        0.01346133        0.02221278        0.02434011        0.00737206
       7         -0.816462        2.000000        0.31532683        0.12014556        0.06396440        0.14245327        0.01523864        0.01330102        0.00215796        0.01168017        0.00087655
       8         -0.764325        2.000000        0.34179284        0.07063126        0.16914501        0.11185882        0.00876990        0.01040451        0.00268924        0.00548571        0.00373687
       9         -0.757731        2.000000        0.33532582        0.15395564        0.12125981        0.09048560        0.00865089        0.00483392        0.00902800        0.00823893        0.00143659
      10         -0.707599        2.000000        0.35512161        0.12466442        0.06992523        0.15386450        0.00707404        0.01234025        0.00741634        0.00981710        0.00584676
      11         -0.682970        2.000000        0.30845126        0.13028167        0.16811011        0.07364404        0.01203281        0.01246040        0.01087662        0.01611323        0.00877413
      12         -0.674276        2.000000        0.36916512        0.10252737        0.15515056        0.08511962        0.01277652        0.02365583        0.01514589        0.01377049        0.00466570
      13         -0.670711        2.000000        0.34297290        0.12675486        0.13824072        0.07616078        0.01668278        0.01445045        0.01849082        0.02023999        0.00768722
      14         -0.661952        2.000000        0.28551629        0.08392045        0.11311741        0.08261388        0.01295801        0.02005568        0.01535623        0.02363460        0.01361031
      15         -0.639458        2.000000        0.36839290        0.09683620        0.09278397        0.09697647        0.01495914        0.02191086        0.02011772        0.02299994        0.00949189
      16         -0.594933        2.000000        0.22113994        0.17947068        0.08515497        0.22338501        0.00401515        0.01115626        0.00691935        0.01374893        0.00607713
      17         -0.576406        2.000000        0.22209937        0.15463832        0.15998093        0.14427373        0.00576663        0.00544200        0.00478923        0.00461772        0.00284304
      18         -0.556992        2.000000        0.19698442        0.12615212        0.17313077        0.09532296        0.00299830        0.00319344        0.00311119        0.00293660        0.00096631
      19         -0.548654        2.000000        0.23547278        0.15912713        0.16193039        0.07543762        0.00583069        0.00628927        0.00361745        0.00417782        0.00217539
      20         -0.539823        2.000000        0.18193048        0.13988408        0.27791878        0.07525519        0.00647948        0.00768108        0.00574713        0.00773900        0.00371024
      21         -0.537035        2.000000        0.17172098        0.12309842        0.27098169        0.07039057        0.00999150        0.00741698        0.00822537        0.00386486        0.00137301
      22         -0.500961        2.000000        0.14113105        0.12863880        0.17381909        0.10843474        0.00623281        0.00705909        0.00679435        0.00744257        0.00318425
      23         -0.494446        2.000000        0.09902782        0.13368428        0.20444498        0.09050362        0.00825893        0.00862583        0.00723189        0.00696871        0.00347737
      24         -0.483157        2.000000        0.04407018        0.12524384        0.17882464        0.06677669        0.00678648        0.00837599        0.00869192        0.00410699        0.00166306
      25         -0.475825        2.000000        0.10957086        0.09419848        0.14569037        0.06646007        0.00953545        0.01514019        0.01014371        0.01061978        0.00603004
      26         -0.469174        2.000000        0.08142319        0.10789001        0.23650055        0.09017343        0.00692574        0.00790845        0.00735912        0.01365047        0.00575251
      27         -0.466865        2.000000        0.08860626        0.16270250        0.09751931        0.12888512        0.00908210        0.01188495        0.01175789        0.00882770        0.00371066
      28         -0.450910        2.000000        0.09189834        0.18998666        0.06126166        0.14565515        0.01522229        0.01188465        0.01771218        0.01124055        0.00439146
      29         -0.441308        2.000000        0.05029620        0.09603290        0.15717935        0.07794459        0.01140920        0.01520498        0.01271787        0.00919426        0.00289849
      30         -0.439833        2.000000        0.05070078        0.09900280        0.16978088        0.09767284        0.01451157        0.01433991        0.01651224        0.01011635        0.00305087
      31         -0.415644        2.000000        0.00208728        0.19858183        0.08746543        0.24321703        0.00319011        0.00439254        0.00787281        0.00537735        0.01779977
      32         -0.412486        2.000000        0.00153847        0.18022225        0.10317915        0.22861492        0.00435378        0.00776451        0.00948069        0.00451666        0.01956249
      33         -0.408390        2.000000        0.07115688        0.19783743        0.08756282        0.18670062        0.01185537        0.01249117        0.01412914        0.00785649        0.00546271
      34         -0.400361        2.000000        0.02836382        0.17061544        0.15633402        0.20167116        0.00902135        0.01334346        0.00955588        0.01381596        0.01045962
      35         -0.393807        2.000000        0.06012428        0.06622957        0.41432040        0.09874305        0.00369553        0.00617552        0.02450986        0.01715698        0.00535213
      36         -0.387650        2.000000        0.06545541        0.30488139        0.20337650        0.06123960        0.00341179        0.02889367        0.00526805        0.01216861        0.01634722
      37         -0.378623        2.000000        0.02704629        0.19844374        0.18944564        0.16389999        0.00872924        0.01366133        0.01703930        0.01658841        0.01030845
      38         -0.367714        2.000000        0.02243092        0.24896121        0.23416247        0.14419365        0.00521947        0.01747142        0.01028206        0.01067409        0.00635723
      39         -0.362178        2.000000        0.00954385        0.31457505        0.26345680        0.12850374        0.00338642        0.01341049        0.00421939        0.01327083        0.00818372
      40         -0.356590        2.000000        0.00775098        0.12339847        0.21594039        0.37722194        0.00758393        0.01370784        0.01300154        0.00949945        0.00734878
      41         -0.352562        2.000000        0.00583309        0.19490914        0.25398484        0.21192014        0.00669819        0.01318074        0.01143115        0.00641342        0.02193737
      42         -0.349737        2.000000        0.02655687        0.22622144        0.19039105        0.12949430        0.01881897        0.01384270        0.01330609        0.01674801        0.01277333
      43         -0.343176        2.000000        0.01704536        0.14241003        0.15890880        0.27307847        0.01529385        0.01801817        0.00721690        0.00662956        0.01589786
      44         -0.339936        2.000000        0.02107786        0.12605070        0.20076964        0.25849394        0.02011175        0.00620066        0.02211775        0.02245509        0.01011636
      45         -0.335474        2.000000        0.00610361        0.20466077        0.15349858        0.24605611        0.00940275        0.01169070        0.01092557        0.01009445        0.02567300
      46         -0.326450        2.000000        0.00967161        0.23501350        0.08879672        0.24584253        0.00345709        0.01389411        0.01188330        0.01403236        0.02698213
      47         -0.312545        2.000000        0.02297758        0.19136754        0.10393739        0.11978600        0.00914762        0.02132255        0.01044530        0.01234614        0.01167636
      48         -0.302958        2.000000        0.01477615        0.09337105        0.26071556        0.13077370        0.01679940        0.01000264        0.03466390        0.01721588        0.00665935
      49         -0.297475        2.000000        0.02185965        0.15928314        0.13266202        0.06890176        0.00566009        0.02202353        0.00937811        0.01382223        0.01327481
      50         -0.296047        2.000000        0.00078024        0.12518571        0.04508127        0.16231633        0.00649484        0.02218953        0.02640869        0.01927407        0.01863972
      51         -0.293525        2.000000        0.00133031        0.10950540        0.08142955        0.14427737        0.00889760        0.00697995        0.02522091        0.02345388        0.03209491
      52         -0.277122        2.000000        0.00140399        0.21538244        0.14908717        0.28082541        0.00570493        0.01120377        0.02124840        0.01501088        0.03186275
      53         -0.258600        2.000000        0.00157757        0.15877476        0.09397648        0.21437236        0.00584332        0.01038898        0.02398826        0.01744356        0.04268076
      54         -0.241554        2.000000        0.05145475        0.02277252        0.09449477        0.02354946        0.00974495        0.01767447        0.04235204        0.00592034        0.00198033
      55         -0.237471        2.000000        0.05009901        0.05807632        0.06433729        0.03136294        0.00854459        0.03783241        0.01206438        0.00351654        0.01202693
      56         -0.226588        2.000000        0.00089427        0.13063988        0.15915195        0.13126541        0.01542857        0.00773845        0.05120036        0.01201126        0.01405835
      57         -0.221156        2.000000        0.00175146        0.18164545        0.14088493        0.21979544        0.00677318        0.01786695        0.02110018        0.01656168        0.05634333
      58         -0.210264        2.000000        0.00016152        0.26312674        0.07326524        0.33939109        0.00409764        0.01778001        0.01219678        0.01511823        0.05673325
      59         -0.206158        2.000000        0.00045205        0.18215655        0.16789000        0.30597235        0.00904699        0.01814488        0.02332974        0.00744426        0.04811784
      60         -0.178784        2.000000        0.00073553        0.18554828        0.10334476        0.26480807        0.00799418        0.01142865        0.02515580        0.01631862        0.03626490
      61         -0.163461        2.000000        0.00053203        0.20587379        0.12952104        0.27216286        0.00735516        0.01205005        0.02417089        0.01601955        0.03737791
      62         -0.089512        0.000000        0.00045934        0.16170996        0.13114150        0.20779854        0.00840576        0.01867732        0.02353223        0.01424571        0.06480869
      63         -0.046758        0.000000        0.00151898        0.23219277        0.15197226        0.30547006        0.01096149        0.01687786        0.03335222        0.02061529        0.05645777
      64         -0.028089        0.000000        0.00201843        0.24111646        0.13994297        0.33046722        0.01796095        0.02380581        0.03960999        0.03401117        0.04559399
      65         -0.020944        0.000000        0.00273741        0.22082750        0.13159670        0.29471696        0.01567046        0.01883013        0.03572649        0.02673571        0.05041453
      66         -0.003605        0.000000        0.01036242        0.20469060        0.13427086        0.28370122        0.01262641        0.02342033        0.02394293        0.01685000        0.04884119
      67         -0.001998        0.000000        0.07464513        0.12685681        0.05390143        0.15980045        0.01246849        0.01808158        0.02269667        0.01233820        0.02845224
      68          0.004220        0.000000        0.02207511        0.14430265        0.15659327        0.23180313        0.01331025        0.02859325        0.02588837        0.02645529        0.04147508
      69          0.037830        0.000000        0.03645137        0.10846866        0.08603006        0.10650737        0.00842227        0.00968419        0.02646118        0.01390112        0.01790995
      70          0.041105        0.000000        0.05556531        0.04082817        0.03592692        0.02175271        0.00424560        0.01230939        0.00834735        0.00487718        0.00173835
      71          0.043490        0.000000        0.02734560        0.10175700        0.08923237        0.09437679        0.00969560        0.01458540        0.02819423        0.01603421        0.02386742
      72          0.050588        0.000000        0.03875016        0.10649166        0.18332916        0.09789683        0.02970626        0.03338049        0.01954745        0.04987892        0.01058292
      73          0.067065        0.000000        0.00724005        0.19737780        0.16343376        0.25145839        0.01068995        0.01370016        0.03762957        0.01665117        0.02513347
      74          0.086251        0.000000        0.05887384        0.06249228        0.12786697        0.04931172        0.04147769        0.03142207        0.03223899        0.03242965        0.01591137
      75          0.095372        0.000000        0.04337734        0.04746397        0.06111789        0.07032718        0.02541237        0.02455935        0.02649729        0.02033012        0.01670860
      76          0.099553        0.000000        0.14718076        0.08436047        0.04209774        0.07536818        0.03426505        0.03424292        0.03453486        0.02354072        0.02707325
      77          0.104863        0.000000        0.13037503        0.09168330        0.04779155        0.07557152        0.03683144        0.04028689        0.06372894        0.02027352        0.01399156
      78          0.106682        0.000000        0.14961801        0.06263520        0.06979386        0.05143745        0.01207252        0.02883794        0.01693773        0.02304295        0.00775325
      79          0.118355        0.000000        0.23299472        0.08298615        0.05807267        0.06299889        0.04402370        0.02674738        0.02256519        0.02085523        0.01802673
      80          0.121470        0.000000        0.27300128        0.07994220        0.07629497        0.05743213        0.03828929        0.02985758        0.00771475        0.02701913        0.00464188
      81          0.126573        0.000000        0.04891233        0.20987578        0.09708582        0.34192074        0.01083147        0.01989153        0.00778104        0.02671379        0.01559934
      82          0.135940        0.000000        0.19240690        0.12571411        0.06564224        0.14475467        0.03519100        0.02749324        0.01071890        0.03040644        0.01693696
      83          0.143392        0.000000        0.10299670        0.12882789        0.13590126        0.23010835        0.03511656        0.01201002        0.00941843        0.03319122        0.01265641
      84          0.152626        0.000000        0.12986570        0.11057285        0.07193501        0.02014561        0.00869331        0.03877500        0.00471907        0.01031957        0.02185883
      85          0.156413        0.000000        0.13976067        0.02973554        0.15252961        0.04339263        0.00229602        0.00863514        0.03492737        0.02922250        0.00328760
      86          0.168483        0.000000        0.29481952        0.04769036        0.06998580        0.04004560        0.04616907        0.03119654        0.01669977        0.02654090        0.00631443
      87          0.172821        0.000000        0.19761603        0.06673143        0.10006199        0.06299977        0.03388426        0.02209118        0.01992324        0.03339602        0.00718756
      88          0.177277        0.000000        0.28916520        0.04444793        0.06362253        0.05945562        0.04020789        0.02694779        0.02087063        0.03453264        0.00723364
      89          0.184879        0.000000        0.21856954        0.08242557        0.10304481        0.04413728        0.06135580        0.03106217        0.01779754        0.03210247        0.00645742
      90          0.188166        0.000000        0.31043833        0.05167589        0.04095071        0.06075788        0.08338948        0.04671289        0.03240466        0.04237416        0.00671622
      91          0.193334        0.000000        0.33540315        0.06013240        0.05503087        0.03351075        0.08410154        0.04172486        0.01812246        0.03552255        0.01388426
      92          0.195241        0.000000        0.28351609        0.05485405        0.07623047        0.05352781        0.06914711        0.03517581        0.03680698        0.04617222        0.00956418
      93          0.204123        0.000000        0.14343206        0.07767379        0.06785022        0.05586861        0.05065281        0.04360425        0.02542128        0.04158848        0.02126778
      94          0.208981        0.000000        0.21022097        0.06707743        0.06342060        0.06486903        0.06066759        0.04524621        0.07671943        0.03047544        0.01105956
      95          0.220722        0.000000        0.18080024        0.10047297        0.07062628        0.04973197        0.04853770        0.04394348        0.01201325        0.03945732        0.01459284
      96          0.226339        0.000000        0.15582938        0.06695815        0.12097440        0.07431649        0.06090120        0.03595268        0.04290481        0.03003689        0.00989802
      97          0.229410        0.000000        0.18937129        0.06639409        0.05496524        0.05790801        0.05853710        0.05431093        0.03396152        0.05005806        0.00995555
      98          0.236749        0.000000        0.20434411        0.06006414        0.07770677        0.10774615        0.04252437        0.03960782        0.01845044        0.03507885        0.01723817
      99          0.239847        0.000000        0.28486215        0.06182280        0.09264643        0.06421254        0.01966026        0.03594583        0.02076535        0.05535399        0.02743976
     100          0.250237        0.000000        0.17881929        0.07775253        0.11424776        0.07591640        0.03905078        0.03590113        0.02876332        0.04448572        0.02632696
     101          0.256682        0.000000        0.03290722        0.18084755        0.13708107        0.21421568        0.00900847        0.01155086        0.00981171        0.01524444        0.00420122
     102          0.270307        0.000000        0.17673042        0.07437336        0.08611472        0.06293655        0.03905784        0.03235036        0.02128759        0.03285402        0.00576612
     103          0.271989        0.000000        0.05995557        0.15737905        0.12940522        0.20058952        0.01064363        0.00926419        0.00595691        0.01573369        0.00580787
     104          0.275474        0.000000        0.12913197        0.09244469        0.06176517        0.15616209        0.10176668        0.03123935        0.02817808        0.03664150        0.00952327
     105          0.284578        0.000000        0.18884077        0.08600115        0.07821715        0.04481231        0.01841863        0.04634775        0.04083158        0.02743308        0.01584123
     106          0.285968        0.000000        0.10373336        0.09084262        0.10919962        0.09045306        0.03146977        0.03905924        0.01800670        0.02570573        0.01169096
     107          0.295067        0.000000        0.11054624        0.13367097        0.06445989        0.12605970        0.02359351        0.03359683        0.01300725        0.01341915        0.00774205
     108          0.308211        0.000000        0.12298124        0.07257222        0.13437808        0.05305027        0.03964037        0.08659005        0.02653464        0.03713189        0.01715497
     109          0.314879        0.000000        0.11218512        0.07617157        0.07356512        0.08013118        0.04302887        0.05516918        0.02239288        0.02761034        0.01116755
     110          0.317345        0.000000        0.07079501        0.09037607        0.11730706        0.06882431        0.02435375        0.06618038        0.02609643        0.03859566        0.00618940
     111          0.323853        0.000000        0.07342467        0.12755922        0.07580927        0.07053365        0.04896546        0.03731164        0.07009298        0.03469243        0.01246789
