# Projected DOS for atomic kind H at iteration step i = 0, E(Fermi) =    -0.156719 a.u.
#     MO Eigenvalue [a.u.]      Occupation                 s                py                pz                px
       1         -1.031379        2.000000        0.00318839        0.00118499        0.00238760        0.00055967
       2         -1.023960        2.000000        0.00333078        0.00106979        0.00300444        0.00042159
       3         -0.854953        2.000000        0.17411569        0.05957550        0.03649474        0.01435227
       4         -0.847212        2.000000        0.18758498        0.01593546        0.05277454        0.04417459
       5         -0.839931        2.000000        0.00860309        0.00142555        0.00338860        0.00228832
       6         -0.829493        2.000000        0.00614246        0.00270636        0.00176264        0.00125620
       7         -0.808067        2.000000        0.03602396        0.00658296        0.01185026        0.00626100
       8         -0.760642        2.000000        0.06896833        0.01778057        0.01351977        0.00595016
       9         -0.752925        2.000000        0.07545248        0.01091758        0.01985658        0.00918609
      10         -0.706702        2.000000        0.04372329        0.00752070        0.00856273        0.00547650
      11         -0.681916        2.000000        0.08470929        0.01212810        0.01237250        0.00860132
      12         -0.673477        2.000000        0.11364536        0.01278967        0.01922991        0.00656413
      13         -0.668997        2.000000        0.10397254        0.01174366        0.01457362        0.00838416
      14         -0.658181        2.000000        0.05491169        0.00798434        0.00477612        0.00615140
      15         -0.632900        2.000000        0.06604096        0.00954887        0.00639589        0.00618782
      16         -0.593019        2.000000        0.06318961        0.00758765        0.00583790        0.00296461
      17         -0.575902        2.000000        0.07097653        0.00425083        0.00682544        0.00508355
      18         -0.558361        2.000000        0.06200637        0.00711891        0.00204083        0.00756747
      19         -0.549292        2.000000        0.10453655        0.00613117        0.00962421        0.00253959
      20         -0.541587        2.000000        0.11260587        0.00244772        0.01241674        0.00120775
      21         -0.537112        2.000000        0.10201017        0.00761672        0.00460475        0.00470528
      22         -0.506989        2.000000        0.08250641        0.00899876        0.00250873        0.00603542
      23         -0.493715        2.000000        0.08555264        0.00165934        0.00748348        0.00305733
      24         -0.481785        2.000000        0.11213094        0.00397545        0.00823737        0.00414600
      25         -0.479340        2.000000        0.10502029        0.00294678        0.00580971        0.00316313
      26         -0.469342        2.000000        0.14418597        0.00502203        0.00235837        0.00627584
      27         -0.461661        2.000000        0.16156756        0.00451922        0.00490623        0.00342370
      28         -0.451959        2.000000        0.17206771        0.00294003        0.00799498        0.00177388
      29         -0.440730        2.000000        0.17464889        0.00409364        0.00646184        0.00227078
      30         -0.437971        2.000000        0.18807024        0.00181937        0.00855979        0.00082622
      31         -0.419809        2.000000        0.00378182        0.00105699        0.00105354        0.00064134
      32         -0.415519        2.000000        0.00177470        0.00089440        0.00040439        0.00118878
      33         -0.408070        2.000000        0.14496020        0.00246797        0.00228690        0.00372718
      34         -0.402365        2.000000        0.11948545        0.00240134        0.00232941        0.00417110
      35         -0.392991        2.000000        0.20201516        0.00170171        0.00186157        0.00136069
      36         -0.390670        2.000000        0.24360846        0.00159774        0.00211012        0.00066443
      37         -0.376843        2.000000        0.06968829        0.00228161        0.00176856        0.00237433
      38         -0.362707        2.000000        0.09128011        0.00506313        0.00320025        0.00290436
      39         -0.360544        2.000000        0.08927923        0.00283771        0.00535896        0.00226727
      40         -0.349977        2.000000        0.09130535        0.00255499        0.00407863        0.00138461
      41         -0.348632        2.000000        0.09645161        0.00394824        0.00243662        0.00444237
      42         -0.346775        2.000000        0.04288370        0.00386948        0.00392099        0.01258146
      43         -0.340034        2.000000        0.07283768        0.00386953        0.00251295        0.01101746
      44         -0.336918        2.000000        0.08286393        0.00171648        0.00106266        0.00313722
      45         -0.336405        2.000000        0.04673579        0.01068055        0.00333581        0.00929393
      46         -0.327530        2.000000        0.02094010        0.01560348        0.00356689        0.01060125
      47         -0.310652        2.000000        0.12050218        0.00091796        0.00055109        0.00141161
      48         -0.303903        2.000000        0.13501244        0.00092171        0.00106429        0.00240481
      49         -0.295481        2.000000        0.08564829        0.00115090        0.00040009        0.00159759
      50         -0.294807        2.000000        0.01521731        0.00342323        0.00114575        0.00333474
      51         -0.290080        2.000000        0.00216810        0.00329452        0.00265958        0.00516795
      52         -0.275936        2.000000        0.00110144        0.00996567        0.00435913        0.01513036
      53         -0.254640        2.000000        0.00140405        0.01189970        0.00549699        0.01850899
      54         -0.243981        2.000000        0.01451312        0.00068218        0.00033390        0.00150383
      55         -0.239771        2.000000        0.01303449        0.00181003        0.00048473        0.00058316
      56         -0.223546        2.000000        0.00048513        0.01037783        0.00986950        0.00920480
      57         -0.218647        2.000000        0.00092072        0.01014093        0.00650557        0.01760051
      58         -0.210256        2.000000        0.00028601        0.01365177        0.00564180        0.01902783
      59         -0.207768        2.000000        0.00075067        0.01137635        0.00831981        0.02083037
      60         -0.174618        2.000000        0.00261034        0.01274641        0.00695439        0.02359000
      61         -0.156719        2.000000        0.00186164        0.00915546        0.00639032        0.01910035
      62         -0.090040        0.000000        0.00084607        0.00680030        0.00495195        0.00786081
      63         -0.046062        0.000000        0.00253254        0.01516899        0.01132388        0.02195824
      64         -0.028499        0.000000        0.00203367        0.02134705        0.00957066        0.02926632
      65         -0.020935        0.000000        0.00179400        0.01444444        0.01069478        0.02505768
      66         -0.003795        0.000000        0.01493550        0.00296609        0.00585444        0.00147931
      67         -0.002960        0.000000        0.00926513        0.01179983        0.01153539        0.02238267
      68          0.002655        0.000000        0.00768834        0.01220592        0.01568294        0.01924796
      69          0.038366        0.000000        0.09164690        0.02909137        0.04781259        0.01781799
      70          0.041851        0.000000        0.27218361        0.09248318        0.13190062        0.04353562
      71          0.043419        0.000000        0.19561133        0.05886027        0.10969443        0.03201342
      72          0.054085        0.000000        0.03796169        0.00952393        0.00628751        0.00777721
      73          0.063612        0.000000        0.00691470        0.01015269        0.01233540        0.01810178
      74          0.084888        0.000000        0.16533555        0.12879978        0.08330498        0.03397080
      75          0.094860        0.000000        0.16939615        0.07440044        0.07881763        0.10062898
      76          0.100401        0.000000        0.11314489        0.08966329        0.03879174        0.05289806
      77          0.108292        0.000000        0.10970259        0.04683682        0.07050190        0.03280493
      78          0.109110        0.000000        0.13645085        0.03657513        0.08584383        0.08139199
      79          0.118328        0.000000        0.12119140        0.06058374        0.11290467        0.01575084
      80          0.122919        0.000000        0.03165360        0.03659914        0.01227502        0.03704037
      81          0.126276        0.000000        0.07629996        0.03754944        0.02169516        0.02985754
      82          0.133098        0.000000        0.01697985        0.01833425        0.02698544        0.04184067
      83          0.144345        0.000000        0.07437148        0.02855633        0.02739960        0.08228259
      84          0.157901        0.000000        0.20210738        0.01263729        0.19420548        0.06992747
      85          0.160308        0.000000        0.17660028        0.12228626        0.10909975        0.02896570
      86          0.169942        0.000000        0.12633738        0.07873690        0.07088726        0.06196706
      87          0.173705        0.000000        0.12823609        0.08931053        0.08191963        0.05342948
      88          0.181382        0.000000        0.03775119        0.02233170        0.00973412        0.00585297
      89          0.189498        0.000000        0.02201030        0.04302835        0.04917041        0.02888953
      90          0.191671        0.000000        0.05924013        0.03633578        0.04630217        0.03424295
      91          0.195330        0.000000        0.04852679        0.07419787        0.07804134        0.02241148
      92          0.197940        0.000000        0.05828900        0.02385942        0.06918473        0.03160036
      93          0.210080        0.000000        0.06570710        0.05662105        0.03395821        0.05557721
      94          0.212257        0.000000        0.05676775        0.07520267        0.02922751        0.04672266
      95          0.217917        0.000000        0.08703734        0.04315782        0.05797105        0.01764023
      96          0.227640        0.000000        0.08176340        0.03092989        0.05886354        0.05095244
      97          0.230957        0.000000        0.06790789        0.02191477        0.08296564        0.02086487
      98          0.232863        0.000000        0.06224860        0.03792437        0.05628306        0.04645290
      99          0.247022        0.000000        0.05729285        0.04484697        0.04623466        0.03185028
     100          0.259229        0.000000        0.02476606        0.04515093        0.02050109        0.03026813
     101          0.261509        0.000000        0.04522220        0.02908770        0.02810158        0.04644128
     102          0.267007        0.000000        0.05458990        0.05857067        0.06865682        0.03373767
     103          0.272890        0.000000        0.01522883        0.06032651        0.01122329        0.06682858
     104          0.279028        0.000000        0.03365403        0.03386643        0.00803497        0.02018700
     105          0.285011        0.000000        0.06531614        0.08308575        0.02935744        0.06247380
     106          0.286457        0.000000        0.06978206        0.05590719        0.08056039        0.02899835
     107          0.299143        0.000000        0.04115130        0.01985675        0.05147564        0.06958377
     108          0.310944        0.000000        0.09239230        0.00968416        0.06629742        0.01466423
     109          0.314740        0.000000        0.06954245        0.05146687        0.03928991        0.02303291
     110          0.318355        0.000000        0.05792557        0.03744502        0.05294305        0.01836052
     111          0.327280        0.000000        0.03451088        0.03013483        0.02162374        0.04149787
