# Projected DOS for atomic kind O at iteration step i = 0, E(Fermi) =    -0.157485 a.u.
#     MO Eigenvalue [a.u.]      Occupation                 s                py                pz                px               d-2               d-1                d0               d+1               d+2
       1         -1.028345        2.000000        0.35674484        0.01837691        0.00530218        0.00497429        0.00061720        0.00047834        0.00002427        0.00091125        0.00001534
       2         -1.022104        2.000000        0.34968102        0.00103960        0.01857934        0.01024496        0.00118167        0.00035292        0.00011282        0.00030773        0.00002608
       3         -0.856929        2.000000        0.00079549        0.00014375        0.00035439        0.00068706        0.00002947        0.00000992        0.00000596        0.00001747        0.00000625
       4         -0.850008        2.000000        0.00246784        0.00047324        0.00006839        0.00047784        0.00004033        0.00000009        0.00000118        0.00000671        0.00000000
       5         -0.842434        2.000000        0.08306982        0.00282938        0.01663540        0.00174076        0.00011234        0.00013090        0.00226061        0.00101958        0.00003454
       6         -0.830374        2.000000        0.07243746        0.00898500        0.01376173        0.00144360        0.00002623        0.00253036        0.00015816        0.00008809        0.00078325
       7         -0.809242        2.000000        0.00087218        0.00580607        0.00424883        0.01214652        0.00015150        0.00037912        0.00021984        0.00079217        0.00024268
       8         -0.761045        2.000000        0.00257595        0.00906491        0.01946459        0.02460534        0.00165568        0.00129990        0.00118106        0.00011409        0.00023911
       9         -0.753146        2.000000        0.00445766        0.02157041        0.00598661        0.01032571        0.00168417        0.00082843        0.00144465        0.00019581        0.00014346
      10         -0.706732        2.000000        0.00172536        0.00925426        0.01668460        0.02756091        0.00082984        0.00114211        0.00098655        0.00168972        0.00041578
      11         -0.680876        2.000000        0.00199285        0.02211202        0.01887932        0.03075184        0.00042111        0.00101838        0.00040047        0.00025195        0.00019421
      12         -0.672907        2.000000        0.00986641        0.00901038        0.00399678        0.00653347        0.00057165        0.00008743        0.00022553        0.00052852        0.00019987
      13         -0.668696        2.000000        0.00772888        0.00038032        0.00015173        0.00057884        0.00017532        0.00050108        0.00015077        0.00090041        0.00024620
      14         -0.658494        2.000000        0.00294871        0.01163237        0.01024661        0.01453899        0.00228648        0.00122640        0.00144646        0.00028466        0.00018126
      15         -0.633916        2.000000        0.00662516        0.01157938        0.00601927        0.00938837        0.00155317        0.00076158        0.00103355        0.00044072        0.00032035
      16         -0.593308        2.000000        0.00536711        0.00366212        0.01585644        0.01845181        0.00064991        0.00048784        0.00075672        0.00126920        0.00029375
      17         -0.575232        2.000000        0.00037628        0.05752544        0.04310130        0.05920124        0.00048510        0.00140849        0.00069877        0.00026406        0.00020298
      18         -0.557625        2.000000        0.00816172        0.03309430        0.03854538        0.04598003        0.00084453        0.00031135        0.00045585        0.00040719        0.00034809
      19         -0.549973        2.000000        0.00445812        0.00998139        0.01264700        0.00136796        0.00066862        0.00026763        0.00042642        0.00041480        0.00015467
      20         -0.541305        2.000000        0.01835737        0.01207050        0.04302211        0.00105506        0.00018122        0.00027388        0.00005713        0.00077635        0.00005860
      21         -0.536756        2.000000        0.03062633        0.01200239        0.02074302        0.00088730        0.00036071        0.00012904        0.00002820        0.00028136        0.00003066
      22         -0.506929        2.000000        0.00151916        0.02175340        0.05492024        0.03006402        0.00012896        0.00083538        0.00048262        0.00021419        0.00033154
      23         -0.493644        2.000000        0.00387309        0.02890041        0.05013513        0.00163219        0.00061826        0.00061026        0.00070795        0.00162826        0.00082435
      24         -0.482949        2.000000        0.01082762        0.02875130        0.01955500        0.03037899        0.00012059        0.00072909        0.00015426        0.00131380        0.00040574
      25         -0.478514        2.000000        0.01385235        0.05714195        0.01117333        0.04461820        0.00119515        0.00009493        0.00061515        0.00002112        0.00000924
      26         -0.469070        2.000000        0.00576755        0.01622335        0.00349921        0.00801769        0.00078735        0.00010279        0.00025578        0.00005939        0.00002968
      27         -0.463127        2.000000        0.00354691        0.00043989        0.00931320        0.00582791        0.00089312        0.00013287        0.00036337        0.00006901        0.00003434
      28         -0.450918        2.000000        0.02219681        0.04780348        0.07080476        0.00243837        0.00007382        0.00069782        0.00014142        0.00011166        0.00002691
      29         -0.440783        2.000000        0.02269508        0.00725568        0.05446422        0.00945066        0.00060853        0.00049016        0.00002135        0.00016609        0.00013350
      30         -0.439526        2.000000        0.00687785        0.00369724        0.02900958        0.00415880        0.00034024        0.00006961        0.00049728        0.00057284        0.00021258
      31         -0.418496        2.000000        0.00012935        0.13837832        0.09307405        0.10463969        0.00023798        0.00021354        0.00135026        0.00074827        0.00212477
      32         -0.414902        2.000000        0.00007274        0.10969206        0.05495784        0.17263285        0.00026640        0.00122559        0.00143583        0.00092891        0.00128608
      33         -0.407243        2.000000        0.00433825        0.01759238        0.01067019        0.06777261        0.00043375        0.00020399        0.00010508        0.00082510        0.00017212
      34         -0.401479        2.000000        0.00414169        0.03213902        0.01287267        0.06604542        0.00050070        0.00034665        0.00019889        0.00033405        0.00006024
      35         -0.392466        2.000000        0.00199282        0.02127808        0.00389830        0.00514725        0.00001252        0.00021814        0.00001401        0.00013696        0.00005632
      36         -0.390982        2.000000        0.00392000        0.00813069        0.00543004        0.00445569        0.00007339        0.00007397        0.00010651        0.00023693        0.00014562
      37         -0.377653        2.000000        0.00713538        0.04379158        0.00767009        0.02676192        0.00027865        0.00002923        0.00023337        0.00080280        0.00028024
      38         -0.363154        2.000000        0.00637729        0.04007663        0.01834782        0.01008708        0.00057447        0.00047117        0.00014174        0.00016589        0.00008144
      39         -0.360312        2.000000        0.00472465        0.00945132        0.02221097        0.01941837        0.00017144        0.00060986        0.00019888        0.00078472        0.00001759
      40         -0.349741        2.000000        0.00630495        0.01428690        0.03581977        0.00780662        0.00004203        0.00006820        0.00059151        0.00070978        0.00001860
      41         -0.348901        2.000000        0.01867670        0.00779495        0.03676525        0.03404628        0.00121549        0.00147405        0.00024887        0.00072843        0.00015174
      42         -0.347112        2.000000        0.00244421        0.00294908        0.01255685        0.00471314        0.00012229        0.00044535        0.00057001        0.00018712        0.00187099
      43         -0.340199        2.000000        0.00372652        0.00236682        0.05176730        0.01114196        0.00007308        0.00042635        0.00019295        0.00000841        0.00085550
      44         -0.337445        2.000000        0.00521947        0.00470103        0.03393359        0.03455140        0.00048402        0.00040844        0.00042489        0.00150156        0.00082045
      45         -0.335432        2.000000        0.00564657        0.05855056        0.01386745        0.00563816        0.00039604        0.00003457        0.00052553        0.00118816        0.00055268
      46         -0.327888        2.000000        0.00027428        0.02368529        0.00532509        0.05281917        0.00002066        0.00008567        0.00024010        0.00015254        0.00013560
      47         -0.309884        2.000000        0.00364142        0.00365007        0.01165527        0.00567465        0.00078505        0.00021632        0.00035768        0.00033021        0.00005751
      48         -0.303136        2.000000        0.00955430        0.01380319        0.09992043        0.06510840        0.00029127        0.00110338        0.00025393        0.00115812        0.00010344
      49         -0.295577        2.000000        0.00172720        0.08942768        0.04697973        0.12200081        0.00034940        0.00019577        0.00039758        0.00066466        0.00073867
      50         -0.294950        2.000000        0.00972068        0.10024128        0.05757312        0.04669847        0.00004417        0.00017901        0.00031892        0.00107204        0.00037596
      51         -0.290509        2.000000        0.00059984        0.12654456        0.04025417        0.05685553        0.00032136        0.00016773        0.00126322        0.00002706        0.00014262
      52         -0.276259        2.000000        0.00019411        0.00005425        0.00009118        0.00026713        0.00074369        0.00102616        0.00210169        0.00070926        0.00409833
      53         -0.255400        2.000000        0.00005796        0.00081484        0.00054311        0.00004814        0.00107458        0.00093335        0.00211464        0.00083213        0.00265915
      54         -0.242836        2.000000        0.00163296        0.01504029        0.03131028        0.00034184        0.00021510        0.00056600        0.00137427        0.00007597        0.00018901
      55         -0.240315        2.000000        0.00174872        0.00573774        0.04983299        0.00172493        0.00012694        0.00098178        0.00094536        0.00002321        0.00002117
      56         -0.223351        2.000000        0.00022542        0.00023173        0.00063346        0.00064280        0.00011359        0.00036969        0.00009279        0.00016729        0.00114358
      57         -0.219162        2.000000        0.00004400        0.00052198        0.00195429        0.00095924        0.00003196        0.00018970        0.00000785        0.00002939        0.00058881
      58         -0.209851        2.000000        0.00000091        0.04181844        0.01709738        0.04807408        0.00008826        0.00037111        0.00011725        0.00015699        0.00322884
      59         -0.207451        2.000000        0.00001411        0.04304344        0.03403227        0.03877256        0.00014114        0.00072540        0.00047902        0.00014210        0.00186750
      60         -0.174869        2.000000        0.00002834        0.00220504        0.00116280        0.00223860        0.00059667        0.00034952        0.00122021        0.00055412        0.00145398
      61         -0.157485        2.000000        0.00002820        0.00126289        0.00025423        0.00064455        0.00036082        0.00043029        0.00105566        0.00031692        0.00160496
      62         -0.089348        0.000000        0.00015037        0.01926962        0.00807046        0.01734833        0.00050080        0.00039763        0.00107965        0.00083513        0.00047444
      63         -0.046254        0.000000        0.00068098        0.00806652        0.00594562        0.00911874        0.00083213        0.00045272        0.00274192        0.00143793        0.00119672
      64         -0.028439        0.000000        0.00058398        0.01471111        0.00531718        0.02041103        0.00002510        0.00141220        0.00087217        0.00005441        0.00740632
      65         -0.020899        0.000000        0.00001129        0.02474067        0.01731382        0.03758972        0.00007264        0.00140700        0.00056337        0.00111928        0.00656891
      66         -0.003919        0.000000        0.01517552        0.01428775        0.00530945        0.00991444        0.00442317        0.00183101        0.00270189        0.00056992        0.00046598
      67         -0.002665        0.000000        0.00047654        0.00828857        0.00726130        0.00954440        0.00003859        0.00007916        0.00001353        0.00040390        0.00210562
      68          0.002962        0.000000        0.00037909        0.00102716        0.00445881        0.00270345        0.00094410        0.00120468        0.00056193        0.00020214        0.00143540
      69          0.038839        0.000000        0.01400765        0.00736369        0.01542794        0.01568503        0.00270599        0.00003868        0.00334529        0.00146627        0.00062230
      70          0.043814        0.000000        0.00031944        0.00213428        0.00177184        0.00556226        0.00083655        0.00033634        0.00100530        0.00099214        0.00031537
      71          0.046545        0.000000        0.01098389        0.00077674        0.00180834        0.00048808        0.00062009        0.00002279        0.00039785        0.00004949        0.00015278
      72          0.053872        0.000000        0.06968916        0.01496962        0.00209648        0.00948815        0.00017646        0.00302577        0.00071711        0.00273997        0.00044741
      73          0.063731        0.000000        0.00042140        0.00702091        0.00523212        0.01156831        0.00222693        0.00078762        0.00467079        0.00199710        0.00080561
      74          0.086368        0.000000        0.07106672        0.00372118        0.00711391        0.00498470        0.00050435        0.00201795        0.00025869        0.00132249        0.00056889
      75          0.094660        0.000000        0.03021613        0.00349383        0.00304395        0.00521478        0.00079600        0.00059537        0.00007188        0.00055234        0.00028327
      76          0.097415        0.000000        0.01214566        0.01042976        0.00209495        0.02281958        0.00076181        0.00031817        0.00128874        0.00041826        0.00133675
      77          0.107923        0.000000        0.09418616        0.00819394        0.02247271        0.00421945        0.00074119        0.00486396        0.00337884        0.00068009        0.00094391
      78          0.110102        0.000000        0.01070013        0.00900253        0.00093376        0.01240101        0.00281479        0.00040725        0.00165120        0.00007472        0.00048122
      79          0.115457        0.000000        0.01632380        0.00064293        0.00311195        0.00082126        0.00018197        0.00021766        0.00044067        0.00039822        0.00034177
      80          0.122604        0.000000        0.02577537        0.00478361        0.00474858        0.00054638        0.00130610        0.00084236        0.00044634        0.00025142        0.00606618
      81          0.125619        0.000000        0.02750584        0.00235344        0.00206106        0.00183693        0.00203966        0.00178971        0.00067305        0.00126768        0.00219332
      82          0.134209        0.000000        0.03374518        0.00884499        0.00031881        0.00126842        0.00006735        0.00068055        0.00340676        0.00141155        0.00273800
      83          0.143044        0.000000        0.00182747        0.00777814        0.00211325        0.00303603        0.00053872        0.00172536        0.00008036        0.00146583        0.00074449
      84          0.159073        0.000000        0.00161323        0.00495049        0.00486170        0.00286390        0.00012113        0.00069193        0.00004856        0.00130472        0.00057921
      85          0.159897        0.000000        0.00025715        0.00067744        0.00988064        0.00136181        0.00036072        0.00070385        0.00013145        0.00008961        0.00045735
      86          0.169776        0.000000        0.00104183        0.00840680        0.00870677        0.00164538        0.00101661        0.00205871        0.00201523        0.00021438        0.00004900
      87          0.172351        0.000000        0.00218672        0.00321327        0.01127431        0.00397400        0.00076070        0.00040315        0.00057090        0.00007395        0.00001407
      88          0.180389        0.000000        0.00002892        0.02075000        0.04451896        0.02008014        0.00729607        0.01314318        0.01069075        0.00118697        0.00108203
      89          0.189426        0.000000        0.00606532        0.00173555        0.00720153        0.00432397        0.00078723        0.00656481        0.00213108        0.00066611        0.00058572
      90          0.190429        0.000000        0.00395181        0.02104329        0.00924172        0.01004765        0.00044498        0.00565702        0.00421924        0.00103555        0.00024826
      91          0.193808        0.000000        0.00107016        0.00303572        0.00202130        0.00253784        0.00014562        0.00179822        0.00061370        0.00086643        0.00010421
      92          0.197147        0.000000        0.00089067        0.02732019        0.02666767        0.01345593        0.00464806        0.00449180        0.00613261        0.00103706        0.00036666
      93          0.210047        0.000000        0.00425038        0.02367377        0.02039841        0.00463530        0.00258970        0.00128700        0.00162996        0.00104047        0.00023411
      94          0.211033        0.000000        0.00183824        0.00726436        0.01503172        0.00858842        0.00358376        0.00145972        0.00087908        0.00146154        0.00003517
      95          0.217808        0.000000        0.00149610        0.00198172        0.03479036        0.03173920        0.00842456        0.00413913        0.00320151        0.00639285        0.00373875
      96          0.227376        0.000000        0.00165407        0.01828427        0.02047210        0.01733803        0.00615761        0.00061089        0.00213822        0.00157575        0.00089285
      97          0.230100        0.000000        0.00030653        0.01431653        0.02624486        0.01489112        0.00105772        0.00077015        0.00128527        0.00021151        0.00013892
      98          0.232487        0.000000        0.00231669        0.00600046        0.00647805        0.00396499        0.00854288        0.00102859        0.00345298        0.00173473        0.00160156
      99          0.246610        0.000000        0.00093244        0.00353141        0.01033577        0.00221573        0.00282054        0.00011163        0.00230015        0.00452735        0.00112539
     100          0.258761        0.000000        0.00062052        0.00704231        0.01586797        0.00997982        0.00216748        0.00195256        0.00085194        0.00083235        0.00008704
     101          0.261104        0.000000        0.00336963        0.01761234        0.01455953        0.01731830        0.00668410        0.00063410        0.00003012        0.00036334        0.00161721
     102          0.267026        0.000000        0.00102840        0.01569686        0.01553741        0.00229301        0.00553334        0.00162550        0.00169483        0.00631248        0.00140270
     103          0.272936        0.000000        0.00024026        0.00533453        0.00410578        0.00310093        0.00036810        0.00016081        0.00082550        0.00007673        0.00007624
     104          0.278817        0.000000        0.00195332        0.00918661        0.00791646        0.00649837        0.00184681        0.00753214        0.00280204        0.00239362        0.00035512
     105          0.283944        0.000000        0.00076091        0.00338139        0.01075075        0.00021926        0.00002008        0.00704341        0.00371179        0.00240257        0.00029062
     106          0.286353        0.000000        0.00018341        0.00500869        0.01049879        0.01382335        0.00257974        0.00642474        0.00277245        0.00012467        0.00098741
     107          0.298318        0.000000        0.00057591        0.00071819        0.00343876        0.00509117        0.00056037        0.00262118        0.00271761        0.00073683        0.00050050
     108          0.310984        0.000000        0.00577486        0.00862328        0.00536364        0.00730770        0.00538764        0.00651695        0.00467498        0.00255458        0.00147398
     109          0.313290        0.000000        0.01605555        0.00505831        0.00658911        0.00827633        0.00281625        0.00593614        0.00412622        0.00058347        0.00042441
     110          0.316821        0.000000        0.00282757        0.00201102        0.00607426        0.01049540        0.00162442        0.00188043        0.00089265        0.00019726        0.00050048
     111          0.328232        0.000000        0.00039633        0.00401533        0.00619247        0.00236219        0.00068017        0.00028497        0.00000880        0.00052755        0.00000851
