# Projected DOS for atomic kind S at iteration step i = 0, E(Fermi) =    -0.157593 a.u.
#     MO Eigenvalue [a.u.]      Occupation                 s                py                pz                px               d-2               d-1                d0               d+1               d+2
       1         -1.044846        2.000000        0.00231427        0.00353631        0.00003563        0.00356774        0.00023216        0.00002806        0.00004854        0.00000074        0.00000506
       2         -1.031177        2.000000        0.00119659        0.00087675        0.00055616        0.00239307        0.00002828        0.00000704        0.00000004        0.00008395        0.00002222
       3         -0.844772        2.000000        0.00005376        0.00000837        0.00000881        0.00000026        0.00000411        0.00000051        0.00000037        0.00000052        0.00000000
       4         -0.836607        2.000000        0.00002284        0.00000064        0.00000522        0.00000505        0.00000012        0.00000000        0.00000015        0.00000001        0.00000001
       5         -0.835579        2.000000        0.00285269        0.00085469        0.00102353        0.00000013        0.00001741        0.00007103        0.00000043        0.00000114        0.00002628
       6         -0.828132        2.000000        0.00462980        0.00004878        0.00152410        0.00058588        0.00002965        0.00000814        0.00000743        0.00009841        0.00000283
       7         -0.808144        2.000000        0.14766427        0.01071746        0.02553708        0.00157058        0.00125091        0.00157202        0.00007353        0.00108861        0.00006413
       8         -0.765479        2.000000        0.00092456        0.00290848        0.00097099        0.00597111        0.00005542        0.00009821        0.00011681        0.00052900        0.00018660
       9         -0.758659        2.000000        0.00823945        0.00080488        0.00122020        0.00003420        0.00000495        0.00024250        0.00007961        0.00002562        0.00003177
      10         -0.709040        2.000000        0.00001272        0.02011280        0.00224851        0.02987747        0.00042276        0.00121341        0.00055098        0.00302138        0.00154104
      11         -0.690459        2.000000        0.02576237        0.00134522        0.00180124        0.00003431        0.00097611        0.00043623        0.00052547        0.00001701        0.00010758
      12         -0.676976        2.000000        0.00636198        0.00224907        0.00012893        0.00199195        0.00000000        0.00027781        0.00001476        0.00047045        0.00027143
      13         -0.671906        2.000000        0.06090222        0.00108440        0.00159864        0.00009041        0.00038020        0.00016494        0.00016981        0.00001284        0.00003097
      14         -0.658642        2.000000        0.11325550        0.00086417        0.00288845        0.00031553        0.00000241        0.00006956        0.00001949        0.00000035        0.00002904
      15         -0.633344        2.000000        0.00000189        0.00698476        0.00049130        0.00860165        0.00016668        0.00084642        0.00025850        0.00183193        0.00106840
      16         -0.596276        2.000000        0.04415374        0.00040785        0.00172303        0.00017292        0.00080124        0.00028920        0.00035611        0.00004609        0.00013453
      17         -0.579805        2.000000        0.00098348        0.00032056        0.00014930        0.00109784        0.00005084        0.00002517        0.00006007        0.00011858        0.00007360
      18         -0.559601        2.000000        0.00077212        0.00021432        0.00068633        0.00001117        0.00000091        0.00000653        0.00000226        0.00000010        0.00000014
      19         -0.549741        2.000000        0.00001657        0.00116871        0.00002861        0.00120180        0.00001422        0.00017208        0.00003102        0.00033632        0.00022844
      20         -0.543790        2.000000        0.00588465        0.00032213        0.00147968        0.00019962        0.00010398        0.00000002        0.00003660        0.00000219        0.00000236
      21         -0.532961        2.000000        0.00023860        0.00016283        0.00012459        0.00007057        0.00000001        0.00000081        0.00000467        0.00000448        0.00001289
      22         -0.504827        2.000000        0.02116828        0.00237496        0.00579561        0.00032259        0.00007412        0.00006514        0.00000457        0.00006077        0.00000290
      23         -0.497081        2.000000        0.00050419        0.01137606        0.00436315        0.02313203        0.00022840        0.00024531        0.00031084        0.00091995        0.00034746
      24         -0.482168        2.000000        0.00471957        0.01638177        0.00406092        0.00327406        0.00013779        0.00148726        0.00012684        0.00038011        0.00069376
      25         -0.470582        2.000000        0.00182707        0.00023463        0.00168908        0.00048284        0.00002456        0.00000018        0.00008502        0.00023388        0.00001683
      26         -0.465057        2.000000        0.00325018        0.03092323        0.00013282        0.02462825        0.00018017        0.00197604        0.00019098        0.00177664        0.00158325
      27         -0.462454        2.000000        0.06017788        0.00709574        0.04041439        0.01044328        0.00009620        0.00143059        0.00101949        0.00129407        0.00000051
      28         -0.452312        2.000000        0.00186428        0.00151935        0.00001432        0.00141280        0.00003691        0.00031742        0.00000114        0.00073727        0.00041059
      29         -0.448891        2.000000        0.00003149        0.00238140        0.00005774        0.00197840        0.00005482        0.00004907        0.00008623        0.00019406        0.00009656
      30         -0.438483        2.000000        0.00089431        0.00030376        0.00063526        0.00013236        0.00091647        0.00028004        0.00059086        0.00001869        0.00003293
      31         -0.428202        2.000000        0.00002670        0.00264447        0.00279809        0.00347546        0.00004170        0.00004173        0.00012757        0.00015216        0.00041947
      32         -0.418486        2.000000        0.00055199        0.00112233        0.00203303        0.00074231        0.00011263        0.00006328        0.00015762        0.00000449        0.00021146
      33         -0.405987        2.000000        0.00042563        0.01625547        0.00283387        0.01900178        0.00015424        0.00139779        0.00059020        0.00347475        0.00188741
      34         -0.398057        2.000000        0.00226440        0.00101497        0.00011589        0.00005597        0.00004813        0.00015762        0.00001304        0.00002165        0.00000614
      35         -0.393415        2.000000        0.00005938        0.00304081        0.00042130        0.00314041        0.00000130        0.00009235        0.00000573        0.00002781        0.00009222
      36         -0.386804        2.000000        0.00031168        0.00199883        0.00004425        0.00074975        0.00007449        0.00000037        0.00005967        0.00000439        0.00002269
      37         -0.374432        2.000000        0.00008676        0.02418215        0.00590689        0.02966349        0.00003047        0.00047810        0.00029693        0.00069623        0.00072658
      38         -0.367108        2.000000        0.00358384        0.00073228        0.01320580        0.00048121        0.00067989        0.00007282        0.00010335        0.00000174        0.00000095
      39         -0.359873        2.000000        0.00063876        0.01231037        0.00464355        0.00329908        0.00006081        0.00077958        0.00095226        0.00090712        0.00140179
      40         -0.357785        2.000000        0.00901020        0.00167499        0.00412217        0.00113481        0.00276902        0.00002821        0.00068631        0.00001690        0.00001032
      41         -0.349886        2.000000        0.00138297        0.00253466        0.03868979        0.02088872        0.00053528        0.00003152        0.00117272        0.00085613        0.00000335
      42         -0.345538        2.000000        0.00301451        0.01384795        0.00005803        0.03544922        0.00000697        0.00001976        0.00103225        0.00121110        0.00008765
      43         -0.341611        2.000000        0.00001330        0.02020879        0.00626104        0.00143085        0.00013965        0.00000964        0.00009012        0.00006360        0.00001391
      44         -0.335013        2.000000        0.00018438        0.01419205        0.00198572        0.00022782        0.00014843        0.00034307        0.00029216        0.00005608        0.00010907
      45         -0.332559        2.000000        0.00056007        0.02181459        0.00561874        0.08354646        0.00039267        0.00023750        0.00026439        0.00108301        0.00038172
      46         -0.325605        2.000000        0.00000404        0.04776592        0.01779053        0.00139377        0.00022123        0.00035434        0.00113858        0.00000295        0.00026084
      47         -0.313269        2.000000        0.02178487        0.05579883        0.11567029        0.01334319        0.00046858        0.00009423        0.00006719        0.00025011        0.00014215
      48         -0.307892        2.000000        0.00712522        0.01895745        0.03791468        0.00188996        0.00056911        0.00056722        0.00004618        0.00037207        0.00028297
      49         -0.297482        2.000000        0.03734556        0.04947408        0.13396832        0.03213708        0.00190939        0.00000058        0.00012752        0.00203922        0.00043848
      50         -0.293275        2.000000        0.00287869        0.00156169        0.01490187        0.00025432        0.00013900        0.00015337        0.00000001        0.00046248        0.00008386
      51         -0.290609        2.000000        0.00205219        0.00014718        0.01782116        0.00096208        0.00016853        0.00001468        0.00000592        0.00003294        0.00006283
      52         -0.274421        2.000000        0.00002422        0.00001349        0.00007042        0.00065189        0.00002124        0.00108772        0.00009048        0.00031054        0.00383301
      53         -0.253837        2.000000        0.00002727        0.00605610        0.00705261        0.00542198        0.00002733        0.00000002        0.00008799        0.00003431        0.00001247
      54         -0.250684        2.000000        0.00016642        0.00002631        0.00003885        0.00035197        0.00000606        0.00002704        0.00000016        0.00005839        0.00002423
      55         -0.236792        2.000000        0.00008721        0.00080584        0.00097619        0.00260843        0.00002546        0.00000098        0.00001148        0.00001228        0.00004479
      56         -0.229224        2.000000        0.00000335        0.12678016        0.11282952        0.17335702        0.00005899        0.00000172        0.00006790        0.00006126        0.00009207
      57         -0.220363        2.000000        0.00005273        0.00423139        0.00374498        0.00514403        0.00005367        0.00070944        0.00003597        0.00025475        0.00232125
      58         -0.214838        2.000000        0.00000459        0.01423682        0.01207680        0.01751497        0.00000006        0.00022148        0.00003233        0.00008162        0.00047320
      59         -0.209520        2.000000        0.00002173        0.00082557        0.00070225        0.00126459        0.00000925        0.00162497        0.00007121        0.00058478        0.00408110
      60         -0.176471        2.000000        0.00002550        0.01050263        0.01003122        0.00974054        0.00005597        0.00000581        0.00013377        0.00004310        0.00002637
      61         -0.157593        2.000000        0.00001649        0.00005950        0.00001291        0.00045630        0.00000973        0.00123741        0.00006678        0.00038938        0.00306025
      62         -0.094157        0.000000        0.00000574        0.04289346        0.03443626        0.04153439        0.00185091        0.00069766        0.00792890        0.00178238        0.00012768
      63         -0.043596        0.000000        0.00019792        0.00005255        0.00035623        0.00133418        0.00004933        0.00000819        0.00000370        0.00046670        0.00000384
      64         -0.028371        0.000000        0.00006193        0.00447781        0.00153016        0.00140913        0.00019776        0.00068579        0.00293268        0.00010931        0.00015891
      65         -0.019874        0.000000        0.00007031        0.00010472        0.00035510        0.00128114        0.00000297        0.00014292        0.00000005        0.00067682        0.00000147
      66         -0.006455        0.000000        0.00003350        0.00193303        0.00065112        0.03240873        0.00203291        0.00199598        0.00046208        0.01113954        0.00555624
      67         -0.002666        0.000000        0.00086493        0.13640863        0.00592559        0.13693645        0.00820307        0.05224214        0.01296552        0.07957347        0.05087639
      68         -0.001488        0.000000        0.00033236        0.00293631        0.00000756        0.00009383        0.00022150        0.00000089        0.00020160        0.00006398        0.00498546
      69          0.035651        0.000000        0.03008267        0.03158228        0.00495771        0.02044769        0.00300162        0.01017379        0.01926194        0.01303242        0.00005478
      70          0.046374        0.000000        0.00146815        0.00027148        0.00523535        0.00008365        0.00234898        0.00023008        0.00159281        0.00083522        0.00022316
      71          0.052435        0.000000        0.00202921        0.00010246        0.00599447        0.00057568        0.00421608        0.00020159        0.00158175        0.00003205        0.00013168
      72          0.053215        0.000000        0.06460134        0.00435981        0.07996630        0.00100959        0.03685461        0.00214877        0.00860194        0.01025271        0.00002516
      73          0.066347        0.000000        0.00014120        0.00109670        0.00112871        0.00063277        0.00168225        0.00958343        0.00003949        0.00452918        0.03508946
      74          0.090562        0.000000        0.00015043        0.00362093        0.00144444        0.00675748        0.00002284        0.00002638        0.00039232        0.00079517        0.00044479
      75          0.094506        0.000000        0.00025437        0.00580936        0.00192665        0.00530859        0.00034040        0.00066479        0.00014172        0.00066906        0.00022910
      76          0.095678        0.000000        0.00043761        0.00050015        0.00021713        0.00059346        0.00050034        0.00002335        0.00027144        0.00038085        0.00049562
      77          0.100880        0.000000        0.00392140        0.00692108        0.01419288        0.00169083        0.00245307        0.00601037        0.00104319        0.00562493        0.00007522
      78          0.112773        0.000000        0.00022135        0.00590908        0.00209945        0.00671928        0.00157573        0.00328442        0.00167792        0.00081954        0.00024447
      79          0.114845        0.000000        0.00128683        0.00221385        0.00328907        0.00110331        0.01600388        0.01241393        0.00835281        0.00027999        0.00049486
      80          0.120956        0.000000        0.00095359        0.00100184        0.00788568        0.00098938        0.01006532        0.00036871        0.00062252        0.00531092        0.00022876
      81          0.124029        0.000000        0.00145957        0.00246617        0.00906802        0.00829732        0.00305573        0.00378138        0.00044144        0.00800608        0.00040915
      82          0.128054        0.000000        0.00014333        0.00138813        0.00252512        0.00080479        0.00134821        0.00016727        0.00023399        0.00254011        0.00012114
      83          0.135696        0.000000        0.00072956        0.00107736        0.00239640        0.00029738        0.00303647        0.00420793        0.00031168        0.00103574        0.00239543
      84          0.151018        0.000000        0.00230699        0.00227490        0.00206714        0.00011932        0.00160173        0.00088011        0.00004785        0.00263057        0.00001082
      85          0.158804        0.000000        0.00158848        0.00051418        0.00334727        0.00056351        0.00022461        0.00178485        0.00074647        0.00150052        0.00000278
      86          0.169433        0.000000        0.00582093        0.00075944        0.00184305        0.00089877        0.00004756        0.00008178        0.00020423        0.00030047        0.00007708
      87          0.176838        0.000000        0.01183895        0.00003325        0.00009450        0.00032597        0.01134602        0.00120288        0.00034054        0.00213125        0.00006741
      88          0.183243        0.000000        0.00548223        0.00308233        0.00511689        0.00054192        0.02321824        0.00501555        0.00071700        0.01382902        0.00000505
      89          0.187516        0.000000        0.00834341        0.00217775        0.01400986        0.00275968        0.00457067        0.00463281        0.00452039        0.00006461        0.00153845
      90          0.191658        0.000000        0.00044628        0.00205367        0.01201350        0.00473401        0.01737363        0.00620475        0.01542370        0.00611510        0.00003982
      91          0.192967        0.000000        0.00334079        0.00328557        0.01436206        0.00182866        0.00057347        0.01598918        0.01047092        0.00892419        0.00012180
      92          0.197206        0.000000        0.03130710        0.00038041        0.00394734        0.00218015        0.00677989        0.00297247        0.00343117        0.00009016        0.00184987
      93          0.198194        0.000000        0.02263207        0.00954001        0.01050453        0.00028449        0.00634531        0.01760706        0.00582150        0.00001513        0.00532846
      94          0.216396        0.000000        0.00029789        0.00211077        0.00494990        0.00022151        0.00094141        0.00038491        0.00102846        0.00126071        0.00044323
      95          0.218552        0.000000        0.00007812        0.00118651        0.00563078        0.00052575        0.00009084        0.00492968        0.00253863        0.00099566        0.00135646
      96          0.224160        0.000000        0.00312377        0.00327416        0.00512384        0.00137406        0.00342024        0.00007411        0.00000247        0.00001212        0.00000068
      97          0.227749        0.000000        0.00773565        0.01457857        0.02125253        0.00459779        0.01280767        0.02654005        0.01984760        0.00583622        0.00255628
      98          0.239544        0.000000        0.03222077        0.00475632        0.03082276        0.00103077        0.00633032        0.00966415        0.00913454        0.00067947        0.00367034
      99          0.249179        0.000000        0.01032545        0.01642370        0.00430484        0.00656157        0.02554029        0.00013457        0.00509979        0.01234696        0.00281948
     100          0.253792        0.000000        0.00290428        0.02172662        0.02118541        0.00356293        0.00103476        0.00074820        0.00073194        0.00001309        0.00002208
     101          0.255918        0.000000        0.00011302        0.04520239        0.05281932        0.04823942        0.00079189        0.00136854        0.00824966        0.00040126        0.00061749
     102          0.267847        0.000000        0.00054746        0.00703925        0.00029701        0.00316392        0.00071210        0.00018620        0.00039468        0.00000247        0.00001625
     103          0.272901        0.000000        0.00013066        0.00238770        0.00475142        0.00306407        0.00026438        0.00290662        0.00026141        0.00049658        0.00001655
     104          0.276472        0.000000        0.00282382        0.00065478        0.00116416        0.00049467        0.00006063        0.00053585        0.00015036        0.00067658        0.00107950
     105          0.283735        0.000000        0.00459943        0.00985416        0.01229835        0.00121629        0.00079817        0.00004011        0.00302562        0.00009388        0.00040974
     106          0.286463        0.000000        0.00180801        0.00046204        0.01064455        0.02391965        0.00001143        0.00153569        0.00217089        0.00034353        0.00003986
     107          0.297786        0.000000        0.00047993        0.04396654        0.02923418        0.03523300        0.00321268        0.00317399        0.00846325        0.00145676        0.00051293
     108          0.304426        0.000000        0.00318663        0.04047192        0.00067452        0.00035118        0.00053219        0.00190979        0.00090646        0.00018795        0.00033344
     109          0.311015        0.000000        0.00042757        0.03357418        0.00535283        0.00673182        0.00003421        0.01571830        0.01153139        0.02671540        0.00002189
     110          0.316410        0.000000        0.00006095        0.00180715        0.01563119        0.00413113        0.00421284        0.00701289        0.00321677        0.00149914        0.00680111
     111          0.320076        0.000000        0.00030370        0.00057777        0.00203818        0.00243614        0.00138300        0.00758263        0.00577627        0.00119893        0.00754650
