# Projected DOS for atomic kind C at iteration step i = 0, E(Fermi) =    -0.156261 a.u.
#     MO Eigenvalue [a.u.]      Occupation                 s                py                pz                px               d-2               d-1                d0               d+1               d+2
       1         -1.039648        2.000000        0.15040022        0.05041649        0.11624792        0.13167338        0.02026719        0.01491524        0.00970816        0.03159423        0.00699630
       2         -1.028854        2.000000        0.15157705        0.14445468        0.06856811        0.08223303        0.03807594        0.01971217        0.01236168        0.00670563        0.00352541
       3         -0.851386        2.000000        0.16490032        0.03532477        0.07386076        0.03251215        0.00543753        0.00803644        0.01248585        0.01915189        0.00117929
       4         -0.839630        2.000000        0.16405001        0.04926236        0.05343682        0.03749989        0.01596212        0.02020294        0.00562064        0.00217965        0.00364830
       5         -0.832645        2.000000        0.13943891        0.06256984        0.17337723        0.06729023        0.03583568        0.02704751        0.01941968        0.01617539        0.00500887
       6         -0.830191        2.000000        0.13927435        0.13820009        0.10343222        0.06816675        0.03734567        0.01150958        0.02112039        0.02535310        0.00807971
       7         -0.806834        2.000000        0.30825992        0.12105905        0.06138552        0.14296454        0.01368028        0.01122716        0.00228532        0.01273311        0.00122137
       8         -0.762416        2.000000        0.35059656        0.07843797        0.14877926        0.10624112        0.00855012        0.00930571        0.00378701        0.00598477        0.00366670
       9         -0.754561        2.000000        0.33318813        0.13952499        0.12751943        0.09697828        0.00821915        0.00518334        0.00682260        0.01005486        0.00236002
      10         -0.707747        2.000000        0.33987633        0.11750912        0.07286767        0.16128671        0.00706273        0.01127869        0.00698949        0.00855551        0.00550428
      11         -0.685983        2.000000        0.33688749        0.13115252        0.13739182        0.08586903        0.01061453        0.01272861        0.01124336        0.01271794        0.00640161
      12         -0.675023        2.000000        0.37372406        0.12012280        0.13258534        0.08816008        0.01481915        0.01769966        0.01769213        0.01362533        0.00492391
      13         -0.670044        2.000000        0.32998025        0.11734605        0.15226743        0.07694086        0.01563754        0.01937726        0.01461445        0.02037393        0.00923291
      14         -0.658170        2.000000        0.27529960        0.08543670        0.11204924        0.08303590        0.01295473        0.01825743        0.01391999        0.02540140        0.01432098
      15         -0.632185        2.000000        0.36019314        0.09043501        0.08987903        0.10213860        0.01459577        0.02052002        0.01939156        0.02431506        0.01146189
      16         -0.594360        2.000000        0.21465621        0.16522545        0.08108475        0.20686821        0.00545244        0.01290927        0.00847543        0.01535371        0.00777064
      17         -0.578623        2.000000        0.20828460        0.16965669        0.14334646        0.14464920        0.00534670        0.00496735        0.00583466        0.00669348        0.00250796
      18         -0.559673        2.000000        0.19689152        0.13156765        0.17525911        0.11777510        0.00262685        0.00356230        0.00299243        0.00314451        0.00115601
      19         -0.547266        2.000000        0.22859629        0.12627606        0.21783485        0.07677662        0.00553357        0.00540435        0.00410404        0.00482845        0.00269302
      20         -0.542307        2.000000        0.17992771        0.12878624        0.30424021        0.06422522        0.00530501        0.00547064        0.00528964        0.00799706        0.00352466
      21         -0.535512        2.000000        0.18729311        0.15178382        0.20217367        0.07390043        0.00998486        0.00950949        0.00653022        0.00200716        0.00164740
      22         -0.506350        2.000000        0.15033843        0.11729897        0.16628118        0.10974207        0.00720563        0.00854375        0.00736301        0.00827286        0.00365412
      23         -0.494555        2.000000        0.09351921        0.11251803        0.17788236        0.11140034        0.00820517        0.00905982        0.00593199        0.00606493        0.00327224
      24         -0.483633        2.000000        0.07303953        0.14375906        0.14351535        0.07762115        0.00695548        0.01220289        0.00740150        0.00595189        0.00292823
      25         -0.474912        2.000000        0.08555760        0.06751085        0.20255290        0.07606060        0.00871859        0.01243591        0.01114913        0.01073564        0.00413840
      26         -0.467278        2.000000        0.07503063        0.12854908        0.25664072        0.05436373        0.00550603        0.01040278        0.00604472        0.01133442        0.00566733
      27         -0.462268        2.000000        0.11188539        0.09932436        0.11319936        0.12875981        0.01214876        0.01278843        0.01473554        0.00931176        0.00374548
      28         -0.452128        2.000000        0.04262250        0.24008011        0.11659217        0.07589719        0.01950636        0.01140817        0.01603313        0.00540911        0.00444240
      29         -0.443830        2.000000        0.04967727        0.09777349        0.19150970        0.14139967        0.01278577        0.01569369        0.01540761        0.00946683        0.00351605
      30         -0.439330        2.000000        0.11172131        0.10846858        0.05488194        0.10651307        0.01101517        0.01622467        0.01376290        0.01086218        0.00487150
      31         -0.424449        2.000000        0.00097944        0.15897729        0.13497024        0.18979836        0.00568702        0.00777074        0.01648463        0.00243327        0.01440411
      32         -0.417365        2.000000        0.00134456        0.20084237        0.06683433        0.22195655        0.00397862        0.00490461        0.00418342        0.00856939        0.02647644
      33         -0.409702        2.000000        0.05900923        0.10301957        0.16132422        0.21104588        0.00947367        0.01107343        0.01118117        0.01122881        0.00660918
      34         -0.399887        2.000000        0.04352750        0.19030470        0.14504486        0.16512868        0.00993204        0.01147998        0.01441604        0.01427375        0.00874947
      35         -0.391816        2.000000        0.05823991        0.09974345        0.38589537        0.09058521        0.00410984        0.00909961        0.02261037        0.01812724        0.00636114
      36         -0.388520        2.000000        0.05728815        0.27924221        0.18659790        0.11495739        0.00396977        0.02568893        0.01027006        0.01078721        0.01222412
      37         -0.374665        2.000000        0.02975791        0.17257449        0.21033213        0.19966267        0.00759132        0.01634300        0.01350826        0.01458429        0.01058169
      38         -0.362257        2.000000        0.02776532        0.24009925        0.23298263        0.13364251        0.00709431        0.01309853        0.01087704        0.00859194        0.00333920
      39         -0.360508        2.000000        0.01403144        0.14584460        0.26729424        0.27430237        0.00754589        0.00818964        0.00939167        0.01384606        0.00816267
      40         -0.353094        2.000000        0.01706981        0.19375418        0.22060100        0.19635716        0.01444163        0.01130136        0.01403215        0.01145966        0.00372961
      41         -0.348627        2.000000        0.01692236        0.34761958        0.13978246        0.19136073        0.00853261        0.02795546        0.00945118        0.00908541        0.01300369
      42         -0.345835        2.000000        0.02153553        0.21910020        0.20600187        0.21031652        0.01703925        0.01280669        0.01387970        0.00897655        0.01018169
      43         -0.345143        2.000000        0.01419958        0.17257354        0.20127099        0.27688246        0.00999321        0.00945945        0.01358228        0.01649959        0.01415234
      44         -0.336324        2.000000        0.00660994        0.16999185        0.16252892        0.29261547        0.00870314        0.01285431        0.00524048        0.01068546        0.02291911
      45         -0.334594        2.000000        0.01181688        0.24632389        0.14566802        0.18272403        0.00716399        0.01897980        0.01423701        0.01759702        0.01673235
      46         -0.326466        2.000000        0.00380183        0.19150522        0.12721799        0.22964890        0.00403613        0.01124760        0.01243139        0.01084792        0.03395155
      47         -0.312369        2.000000        0.02072702        0.15309910        0.15149055        0.12808788        0.01085300        0.02043908        0.01617870        0.01234707        0.00502891
      48         -0.306051        2.000000        0.01605403        0.09296647        0.27872228        0.11295421        0.01567896        0.01304530        0.03157954        0.01978255        0.00560120
      49         -0.296068        2.000000        0.01923284        0.21073825        0.10941326        0.05431605        0.00468938        0.02333761        0.00594139        0.02220528        0.01125362
      50         -0.293269        2.000000        0.00085979        0.14237414        0.05305671        0.17115229        0.00689350        0.02045540        0.02813061        0.01832776        0.01771066
      51         -0.290105        2.000000        0.00175477        0.10107408        0.10206755        0.16998000        0.00879167        0.00768346        0.02465327        0.01537687        0.03370720
      52         -0.275244        2.000000        0.00093534        0.21924730        0.15638305        0.27335441        0.00588090        0.00924228        0.01899988        0.01525493        0.03465560
      53         -0.253548        2.000000        0.00125147        0.16091985        0.09457542        0.19001782        0.00576441        0.01116338        0.02548921        0.01716087        0.04285456
      54         -0.247644        2.000000        0.05145882        0.06496740        0.06637259        0.02072565        0.00817063        0.03741478        0.00901321        0.00208061        0.01165474
      55         -0.238110        2.000000        0.04888487        0.02212463        0.09157883        0.01929158        0.00823980        0.01551538        0.03706234        0.00511308        0.00076758
      56         -0.225843        2.000000        0.00186836        0.15052021        0.13746812        0.16415391        0.01609397        0.00754737        0.04482776        0.01165254        0.01698338
      57         -0.218463        2.000000        0.00093832        0.20081626        0.11878373        0.26702257        0.00566453        0.01757536        0.01997019        0.01574200        0.05491053
      58         -0.212374        2.000000        0.00060376        0.21642519        0.12475835        0.32199871        0.00774771        0.01436482        0.01694424        0.01173614        0.05172034
      59         -0.208838        2.000000        0.00046096        0.20986490        0.14092125        0.28117255        0.00952463        0.01472862        0.02330000        0.00998745        0.05288084
      60         -0.175164        2.000000        0.00071654        0.19212673        0.10584319        0.25985167        0.00731976        0.01054327        0.02308688        0.01602579        0.03955953
      61         -0.156261        2.000000        0.00056947        0.19774761        0.13369636        0.26865817        0.00702565        0.01219396        0.02461795        0.01519453        0.03848949
      62         -0.092494        0.000000        0.00115657        0.16600444        0.12908048        0.19220520        0.00771703        0.01846697        0.02249268        0.01346809        0.05805926
      63         -0.044942        0.000000        0.00168405        0.23859955        0.15565359        0.29846015        0.01259184        0.01776314        0.03266882        0.01746846        0.05566187
      64         -0.028174        0.000000        0.00197152        0.25265374        0.12549271        0.33622962        0.01710777        0.02592268        0.03977835        0.03186199        0.04715504
      65         -0.020870        0.000000        0.00195989        0.21591650        0.14552230        0.29741013        0.01854916        0.01639716        0.03843952        0.02322813        0.05138017
      66         -0.004747        0.000000        0.01899126        0.20720068        0.13276495        0.24823649        0.01111782        0.03047169        0.02169519        0.01776088        0.04234444
      67         -0.003084        0.000000        0.08511485        0.10822814        0.06080495        0.12596035        0.01172710        0.01994661        0.02064663        0.01151333        0.02213535
      68          0.000563        0.000000        0.00499340        0.16946509        0.15546098        0.31054605        0.01673855        0.02053941        0.03100029        0.01904189        0.05528869
      69          0.037184        0.000000        0.01900905        0.17536046        0.11890056        0.16914357        0.01362972        0.01534633        0.03307080        0.02290289        0.03551898
      70          0.044204        0.000000        0.04025981        0.00868397        0.04961892        0.01989544        0.00225523        0.00127625        0.01221790        0.00954477        0.00137654
      71          0.047426        0.000000        0.04244248        0.04999740        0.03821740        0.03074501        0.00346568        0.01349841        0.00369169        0.01081318        0.00410795
      72          0.053334        0.000000        0.03656499        0.09416046        0.13281823        0.13665136        0.03176157        0.04070046        0.01836219        0.04666407        0.01272143
      73          0.064367        0.000000        0.00468914        0.24745486        0.17293592        0.22909854        0.01458013        0.00679900        0.03204484        0.01680909        0.02676347
      74          0.089373        0.000000        0.04161643        0.06823402        0.09902904        0.04672643        0.04204875        0.03128424        0.03298594        0.02608689        0.01373348
      75          0.095906        0.000000        0.04694782        0.05674780        0.05256318        0.04426229        0.01805910        0.02606406        0.02245942        0.01574209        0.00754868
      76          0.100863        0.000000        0.19684482        0.06406429        0.05309449        0.05058994        0.02909495        0.04587453        0.03611739        0.04492380        0.01971587
      77          0.103224        0.000000        0.16104597        0.06313717        0.05792268        0.06681861        0.03187372        0.04465391        0.03629229        0.03707419        0.02184271
      78          0.110518        0.000000        0.18975407        0.05833746        0.07389935        0.07765039        0.03354188        0.03239728        0.01424584        0.01947996        0.00985602
      79          0.121927        0.000000        0.23265637        0.06473682        0.09241517        0.05870777        0.01716846        0.03004833        0.01929623        0.02224668        0.00649912
      80          0.123242        0.000000        0.16009766        0.17626571        0.06212066        0.20321736        0.02849529        0.02447525        0.01601568        0.02302642        0.01752727
      81          0.126466        0.000000        0.12821524        0.18556995        0.08804416        0.23811230        0.02583958        0.01877885        0.02011777        0.01646613        0.01471905
      82          0.128209        0.000000        0.07021772        0.14964573        0.14859414        0.28478272        0.02715350        0.02305817        0.01760114        0.02873456        0.01477995
      83          0.141844        0.000000        0.23781885        0.07381238        0.06767390        0.07578997        0.03844477        0.02504898        0.00930162        0.04232892        0.01293270
      84          0.152652        0.000000        0.13942424        0.12045405        0.08367676        0.02129938        0.00613298        0.02799610        0.00324140        0.00871416        0.01781805
      85          0.156273        0.000000        0.13125776        0.03154933        0.13368928        0.03937566        0.00578755        0.00840813        0.03148354        0.02627632        0.00282510
      86          0.168427        0.000000        0.26538161        0.08156923        0.04614666        0.04442681        0.01692946        0.03562765        0.02879357        0.02602938        0.00464849
      87          0.180239        0.000000        0.30889291        0.05653318        0.04800442        0.05094910        0.05969431        0.03294781        0.02054145        0.04600146        0.01212932
      88          0.184059        0.000000        0.20060659        0.05346854        0.09862345        0.06224900        0.04928313        0.04414017        0.03128138        0.04652940        0.01700593
      89          0.188522        0.000000        0.38206962        0.02067000        0.05669881        0.03163744        0.07189505        0.01896601        0.03542119        0.05261580        0.00510426
      90          0.192157        0.000000        0.28611908        0.06755118        0.07731302        0.03344422        0.06389598        0.03863280        0.01596700        0.03117697        0.01076187
      91          0.195285        0.000000        0.30471586        0.05048537        0.07830534        0.02248237        0.06018719        0.04998678        0.02296722        0.04852278        0.01439691
      92          0.198059        0.000000        0.21684275        0.05343109        0.10760673        0.05096912        0.04103619        0.04082967        0.01571839        0.03867415        0.01530381
      93          0.205799        0.000000        0.13852895        0.06285461        0.10719449        0.04804528        0.04790086        0.03805485        0.02314528        0.05534624        0.01503670
      94          0.215226        0.000000        0.21492788        0.07180737        0.05921783        0.07619124        0.07244242        0.05176286        0.06637580        0.03560305        0.00802100
      95          0.217767        0.000000        0.20264291        0.07903315        0.06892559        0.06308950        0.04205467        0.04955117        0.00949209        0.03708360        0.01315795
      96          0.227202        0.000000        0.16701803        0.05615189        0.11063225        0.06530841        0.05635260        0.03584290        0.03530540        0.03760362        0.00932831
      97          0.230135        0.000000        0.16256289        0.06416992        0.05673359        0.06371902        0.06378245        0.04495381        0.03282225        0.04859205        0.00920913
      98          0.236739        0.000000        0.21139611        0.06847895        0.09680641        0.07393709        0.05643672        0.02615526        0.04104350        0.02948617        0.01823570
      99          0.248334        0.000000        0.22351195        0.08705704        0.07019763        0.08382093        0.01575432        0.06639240        0.01411699        0.04872263        0.02903066
     100          0.258188        0.000000        0.19276254        0.07468230        0.10876481        0.05439039        0.04905207        0.03895710        0.02709161        0.03902168        0.01802570
     101          0.259061        0.000000        0.04993687        0.19645588        0.11492477        0.20962830        0.01057270        0.01284448        0.00773690        0.01613084        0.00537681
     102          0.267804        0.000000        0.19640780        0.09359185        0.07970921        0.09086258        0.03307171        0.04883380        0.02890431        0.03800201        0.01032157
     103          0.272906        0.000000        0.06015976        0.11900052        0.13276249        0.21311133        0.01082765        0.02302385        0.00863180        0.01457943        0.00897618
     104          0.279362        0.000000        0.13156342        0.10215506        0.04458566        0.13838798        0.09321339        0.03478297        0.02464172        0.03341255        0.00923964
     105          0.285395        0.000000        0.12968918        0.10972315        0.09964830        0.09626467        0.02452706        0.03567446        0.03662748        0.01879436        0.01208836
     106          0.287175        0.000000        0.13957729        0.04411962        0.10774828        0.04458844        0.02808611        0.04519673        0.01803202        0.02566137        0.01079875
     107          0.299324        0.000000        0.03302814        0.13993779        0.07585683        0.13016887        0.02317673        0.01762111        0.01546529        0.01460207        0.00698458
     108          0.307412        0.000000        0.12078551        0.07661816        0.10912626        0.07269204        0.04784203        0.06466860        0.02988761        0.05578595        0.01342810
     109          0.314929        0.000000        0.06487471        0.08838479        0.12218918        0.04679589        0.03176835        0.08119177        0.02138800        0.03351769        0.01101005
     110          0.317309        0.000000        0.15058320        0.10179093        0.08095903        0.06717586        0.07571400        0.05743212        0.02500458        0.06168495        0.01423201
     111          0.324309        0.000000        0.08503608        0.07637682        0.10583266        0.10037501        0.04673539        0.02687828        0.04730180        0.05929130        0.01258873
