# Projected DOS for atomic kind O at iteration step i = 0, E(Fermi) =    -0.159534 a.u.
#     MO Eigenvalue [a.u.]      Occupation                 s                py                pz                px               d-2               d-1                d0               d+1               d+2
       1         -1.022597        2.000000        0.35501738        0.01858532        0.00503107        0.00512410        0.00066234        0.00048068        0.00001343        0.00085076        0.00001007
       2         -1.018796        2.000000        0.34652292        0.00101365        0.01852867        0.01004352        0.00115570        0.00035879        0.00013041        0.00030849        0.00002437
       3         -0.859365        2.000000        0.00078754        0.00013461        0.00029861        0.00059988        0.00002655        0.00000891        0.00000529        0.00001520        0.00000528
       4         -0.854457        2.000000        0.00148766        0.00051121        0.00004512        0.00039210        0.00004269        0.00000022        0.00000816        0.00000110        0.00000009
       5         -0.846216        2.000000        0.08822940        0.00293185        0.01625673        0.00170878        0.00013659        0.00013759        0.00230692        0.00097894        0.00003150
       6         -0.833144        2.000000        0.07770045        0.00880690        0.01289642        0.00137609        0.00002446        0.00247677        0.00015487        0.00009593        0.00078861
       7         -0.812042        2.000000        0.00080141        0.00521560        0.00375231        0.01063503        0.00012614        0.00035494        0.00019588        0.00073966        0.00022397
       8         -0.762677        2.000000        0.00256065        0.00644480        0.01743643        0.02175539        0.00155382        0.00119551        0.00106278        0.00010122        0.00023086
       9         -0.754421        2.000000        0.00513973        0.02294166        0.00531121        0.01053563        0.00170367        0.00078406        0.00143782        0.00016966        0.00010935
      10         -0.707073        2.000000        0.00175561        0.00870270        0.01585206        0.02597090        0.00082808        0.00115051        0.00098930        0.00165334        0.00040983
      11         -0.679949        2.000000        0.00166307        0.02176265        0.01783975        0.02999035        0.00041854        0.00097993        0.00042069        0.00021337        0.00016287
      12         -0.672457        2.000000        0.00992100        0.00774607        0.00459887        0.00712954        0.00061747        0.00018007        0.00019271        0.00036762        0.00016664
      13         -0.668614        2.000000        0.00717814        0.00069315        0.00010329        0.00044614        0.00008549        0.00046625        0.00018033        0.00101034        0.00026249
      14         -0.659583        2.000000        0.00415418        0.01074331        0.00955097        0.01363851        0.00228427        0.00109410        0.00133942        0.00023244        0.00017945
      15         -0.636312        2.000000        0.00682338        0.01161242        0.00512192        0.00873217        0.00149915        0.00072994        0.00099012        0.00045021        0.00029891
      16         -0.594056        2.000000        0.00527105        0.00555343        0.01283441        0.01551241        0.00056189        0.00062888        0.00069529        0.00134759        0.00033662
      17         -0.574755        2.000000        0.00039747        0.05718617        0.04100855        0.06037961        0.00066508        0.00143210        0.00089200        0.00032385        0.00016844
      18         -0.556826        2.000000        0.00701363        0.02517693        0.04002964        0.04694924        0.00067847        0.00034991        0.00036572        0.00045298        0.00037939
      19         -0.550231        2.000000        0.00410574        0.01468939        0.00885686        0.00327893        0.00069723        0.00021895        0.00047208        0.00036027        0.00010120
      20         -0.540723        2.000000        0.01913220        0.01337567        0.03953183        0.00083900        0.00026099        0.00017538        0.00005546        0.00057892        0.00003111
      21         -0.535959        2.000000        0.03214444        0.01136017        0.02541713        0.00113225        0.00043009        0.00010021        0.00001645        0.00022604        0.00001180
      22         -0.506084        2.000000        0.00217560        0.01806442        0.06000710        0.03107184        0.00013316        0.00076602        0.00050441        0.00026941        0.00037297
      23         -0.494468        2.000000        0.00385159        0.01809388        0.04740294        0.00342431        0.00059234        0.00068644        0.00067502        0.00172625        0.00076336
      24         -0.484371        2.000000        0.01039394        0.03595460        0.01090238        0.02728961        0.00037489        0.00056950        0.00026691        0.00105487        0.00039083
      25         -0.477392        2.000000        0.00944528        0.05817610        0.00805366        0.03957280        0.00068053        0.00034928        0.00034849        0.00017607        0.00007109
      26         -0.468689        2.000000        0.00561077        0.01758306        0.00220983        0.00847284        0.00062697        0.00015980        0.00018983        0.00008927        0.00003119
      27         -0.466548        2.000000        0.00489051        0.00582506        0.00325228        0.00960424        0.00122435        0.00016798        0.00043069        0.00006339        0.00006525
      28         -0.448651        2.000000        0.01384807        0.03654299        0.07047120        0.00426543        0.00005656        0.00082504        0.00040131        0.00004071        0.00013104
      29         -0.443162        2.000000        0.01935547        0.01544560        0.06877419        0.00794885        0.00013923        0.00010496        0.00039034        0.00060380        0.00007600
      30         -0.441405        2.000000        0.02076214        0.00254350        0.03426332        0.00872785        0.00084768        0.00029016        0.00002288        0.00041809        0.00021640
      31         -0.416674        2.000000        0.00017767        0.12686672        0.07743051        0.10584593        0.00021397        0.00045155        0.00145119        0.00071913        0.00184301
      32         -0.413788        2.000000        0.00006275        0.10933698        0.06552913        0.15508444        0.00029615        0.00094237        0.00131096        0.00105639        0.00148793
      33         -0.406571        2.000000        0.00406326        0.01605689        0.00733606        0.07021062        0.00057555        0.00018699        0.00014193        0.00082989        0.00018171
      34         -0.400052        2.000000        0.00512943        0.04295879        0.01179900        0.06679383        0.00052878        0.00049189        0.00019845        0.00028664        0.00007522
      35         -0.392910        2.000000        0.00185269        0.01059140        0.00301629        0.00452007        0.00003437        0.00028578        0.00006509        0.00007911        0.00010237
      36         -0.386942        2.000000        0.00444657        0.01012569        0.00971620        0.00285286        0.00002851        0.00001563        0.00006992        0.00035786        0.00012060
      37         -0.378452        2.000000        0.00774741        0.04368275        0.01187972        0.03198723        0.00031039        0.00001012        0.00020287        0.00061435        0.00024264
      38         -0.364337        2.000000        0.00876323        0.04476556        0.01590802        0.01950102        0.00038802        0.00027928        0.00014620        0.00035853        0.00003254
      39         -0.359871        2.000000        0.00134067        0.00424366        0.02183907        0.00857254        0.00030578        0.00059691        0.00031740        0.00032251        0.00010330
      40         -0.351911        2.000000        0.00223985        0.00701282        0.01189675        0.00757465        0.00030059        0.00033373        0.00083248        0.00087606        0.00011062
      41         -0.349012        2.000000        0.01614518        0.01439335        0.03580518        0.02705606        0.00086319        0.00084595        0.00000890        0.00024495        0.00028431
      42         -0.347421        2.000000        0.00438108        0.01276060        0.00531185        0.00952247        0.00010549        0.00036658        0.00015436        0.00063127        0.00161629
      43         -0.341589        2.000000        0.00655341        0.00209401        0.05633716        0.01906941        0.00009430        0.00074708        0.00015806        0.00014004        0.00097030
      44         -0.338281        2.000000        0.00749884        0.00511965        0.04706613        0.03843644        0.00040266        0.00050526        0.00062538        0.00143016        0.00064404
      45         -0.334778        2.000000        0.00549420        0.05573930        0.02251110        0.00223661        0.00035010        0.00007384        0.00052921        0.00102102        0.00038664
      46         -0.328326        2.000000        0.00028141        0.02552733        0.00743638        0.03710377        0.00005209        0.00007260        0.00023032        0.00036181        0.00009771
      47         -0.309257        2.000000        0.00375434        0.00517248        0.00802102        0.00489409        0.00080642        0.00014907        0.00047162        0.00022191        0.00006487
      48         -0.301952        2.000000        0.00974992        0.01213943        0.09656213        0.09089112        0.00021524        0.00110967        0.00020604        0.00127363        0.00009804
      49         -0.296332        2.000000        0.00053172        0.11223813        0.06624410        0.10864535        0.00025390        0.00034334        0.00052854        0.00039055        0.00094125
      50         -0.294866        2.000000        0.01148049        0.09669157        0.04847411        0.04146274        0.00006312        0.00011180        0.00015107        0.00110538        0.00044467
      51         -0.291685        2.000000        0.00025993        0.11440292        0.05298838        0.07325519        0.00035883        0.00015224        0.00106429        0.00005720        0.00006440
      52         -0.276892        2.000000        0.00023558        0.00034227        0.00030119        0.00066350        0.00071085        0.00100199        0.00201721        0.00061929        0.00380101
      53         -0.257039        2.000000        0.00007117        0.00147514        0.00055535        0.00020102        0.00097493        0.00081247        0.00192526        0.00080763        0.00268975
      54         -0.241440        2.000000        0.00167081        0.00899922        0.04600203        0.00134325        0.00010982        0.00086151        0.00104302        0.00006161        0.00006351
      55         -0.240570        2.000000        0.00173848        0.01504643        0.03919245        0.00049919        0.00019311        0.00066634        0.00122094        0.00006422        0.00015832
      56         -0.223788        2.000000        0.00015987        0.00019770        0.00075872        0.00051922        0.00011350        0.00039345        0.00007296        0.00015794        0.00112365
      57         -0.220276        2.000000        0.00006107        0.00045980        0.00179266        0.00031926        0.00002693        0.00014391        0.00000044        0.00001396        0.00037353
      58         -0.209590        2.000000        0.00000079        0.04545487        0.01525368        0.05216406        0.00005030        0.00030338        0.00004880        0.00014337        0.00326016
      59         -0.206905        2.000000        0.00001042        0.04251523        0.03901881        0.03754262        0.00019034        0.00087825        0.00058129        0.00014855        0.00195938
      60         -0.175913        2.000000        0.00002216        0.00199951        0.00105223        0.00198869        0.00056589        0.00033791        0.00115395        0.00051585        0.00140368
      61         -0.159534        2.000000        0.00002070        0.00123563        0.00026240        0.00060666        0.00033843        0.00037738        0.00096284        0.00033968        0.00163608
      62         -0.088483        0.000000        0.00013321        0.01928813        0.00783491        0.01720678        0.00053711        0.00036064        0.00104078        0.00085356        0.00045766
      63         -0.046462        0.000000        0.00092319        0.00815437        0.00582150        0.00925781        0.00078089        0.00038041        0.00255093        0.00147931        0.00117412
      64         -0.028107        0.000000        0.00076429        0.01444647        0.00536586        0.02043424        0.00001974        0.00135709        0.00086369        0.00006176        0.00736223
      65         -0.020917        0.000000        0.00000852        0.02433070        0.01742065        0.03782095        0.00005933        0.00141352        0.00057043        0.00109936        0.00671195
      66         -0.004009        0.000000        0.01454075        0.01254713        0.00530934        0.01068867        0.00421263        0.00182185        0.00274979        0.00050434        0.00025743
      67         -0.002605        0.000000        0.00038101        0.01090232        0.00752616        0.01031514        0.00018782        0.00010557        0.00004340        0.00050856        0.00237715
      68          0.003516        0.000000        0.00059503        0.00089445        0.00396950        0.00231308        0.00128748        0.00134365        0.00037823        0.00016082        0.00129360
      69          0.040058        0.000000        0.01641955        0.00837318        0.01764196        0.01685493        0.00337083        0.00006681        0.00390083        0.00169686        0.00043247
      70          0.048428        0.000000        0.00235900        0.00159684        0.00087565        0.00300588        0.00025480        0.00035420        0.00029476        0.00076841        0.00054744
      71          0.050255        0.000000        0.00095640        0.00181499        0.00059107        0.00147285        0.00052547        0.00035317        0.00067844        0.00037988        0.00043400
      72          0.052510        0.000000        0.07529928        0.01338449        0.00317218        0.00931286        0.00035476        0.00248322        0.00042526        0.00233697        0.00027524
      73          0.064285        0.000000        0.00029348        0.00629280        0.00392533        0.01119158        0.00203192        0.00093486        0.00404547        0.00189180        0.00068774
      74          0.086316        0.000000        0.09734753        0.00910737        0.00906797        0.01280067        0.00036190        0.00220628        0.00009163        0.00202270        0.00117502
      75          0.093089        0.000000        0.02498354        0.00515107        0.00958942        0.02006405        0.00125647        0.00118919        0.00212162        0.00012355        0.00087054
      76          0.097412        0.000000        0.00489561        0.00331748        0.00046690        0.00361475        0.00056805        0.00006361        0.00046998        0.00006329        0.00002676
      77          0.108207        0.000000        0.06898912        0.01228800        0.02124995        0.00371817        0.00104269        0.00465998        0.00333584        0.00069425        0.00081309
      78          0.110249        0.000000        0.00223977        0.00952632        0.00165919        0.00811594        0.00264612        0.00061198        0.00142790        0.00021518        0.00060583
      79          0.111830        0.000000        0.02374914        0.00018060        0.00101600        0.00414261        0.00034386        0.00044084        0.00017087        0.00008481        0.00040307
      80          0.121065        0.000000        0.05509390        0.00192925        0.00772778        0.00129740        0.00231188        0.00110194        0.00043918        0.00009386        0.00226338
      81          0.124509        0.000000        0.00511490        0.00562138        0.00031300        0.00090018        0.00051186        0.00155290        0.00066250        0.00139726        0.00552207
      82          0.135534        0.000000        0.02932652        0.00806434        0.00361132        0.00318233        0.00041912        0.00024558        0.00390050        0.00250499        0.00147864
      83          0.140623        0.000000        0.01027358        0.00578154        0.00115019        0.00137673        0.00025131        0.00137119        0.00040296        0.00022222        0.00204440
      84          0.155289        0.000000        0.00191921        0.00457238        0.00461305        0.00032445        0.00015034        0.00068003        0.00047187        0.00056130        0.00018869
      85          0.161156        0.000000        0.00023652        0.00428315        0.01923711        0.00046284        0.00025298        0.00236422        0.00057219        0.00025583        0.00073989
      86          0.169257        0.000000        0.00132439        0.00096928        0.00021045        0.00063292        0.00069630        0.00000618        0.00029498        0.00004327        0.00015805
      87          0.170457        0.000000        0.00314538        0.00195992        0.01296313        0.00509561        0.00092651        0.00094087        0.00086867        0.00002943        0.00008786
      88          0.178616        0.000000        0.00015981        0.01686515        0.04801664        0.02386690        0.00792411        0.01454906        0.01126600        0.00112696        0.00094806
      89          0.187591        0.000000        0.00048421        0.02717044        0.01505950        0.01284402        0.00023100        0.01015931        0.00783659        0.00034146        0.00039321
      90          0.189097        0.000000        0.00850017        0.00783461        0.00463052        0.00506352        0.00108040        0.00362588        0.00072837        0.00135249        0.00036521
      91          0.191855        0.000000        0.00112166        0.00454330        0.00081262        0.00185808        0.00029439        0.00072629        0.00061692        0.00145733        0.00000684
      92          0.196216        0.000000        0.00224478        0.02430013        0.02313234        0.00980082        0.00557352        0.00226920        0.00440054        0.00104847        0.00015712
      93          0.207790        0.000000        0.00534079        0.01996036        0.00286841        0.01131731        0.00433222        0.00140662        0.00146842        0.00079449        0.00017420
      94          0.209310        0.000000        0.00055924        0.00883243        0.03085370        0.00291657        0.00073030        0.00099209        0.00047264        0.00074054        0.00003790
      95          0.217014        0.000000        0.00236773        0.00472562        0.02136860        0.02187825        0.00896883        0.00288525        0.00405980        0.00547829        0.00285143
      96          0.227070        0.000000        0.00174752        0.02468149        0.02600868        0.01637615        0.00440213        0.00048684        0.00149317        0.00184878        0.00083910
      97          0.229228        0.000000        0.00058695        0.00686820        0.02894908        0.02554668        0.00293694        0.00183027        0.00192668        0.00030451        0.00054303
      98          0.232738        0.000000        0.00141133        0.00525170        0.01204027        0.00629202        0.00618402        0.00195646        0.00222284        0.00173219        0.00185960
      99          0.245427        0.000000        0.00057659        0.00406442        0.01145717        0.00199924        0.00326694        0.00020262        0.00221863        0.00561049        0.00171199
     100          0.256726        0.000000        0.00133586        0.01196488        0.02227401        0.01242062        0.00308203        0.00195221        0.00037774        0.00215674        0.00011364
     101          0.259458        0.000000        0.00283102        0.01708441        0.00974539        0.01362363        0.00455208        0.00015846        0.00023387        0.00019719        0.00129386
     102          0.267277        0.000000        0.00101830        0.01022261        0.01024954        0.00378606        0.00651842        0.00243089        0.00073928        0.00368156        0.00127406
     103          0.273409        0.000000        0.00026671        0.00591986        0.00500144        0.00280747        0.00130627        0.00082313        0.00049470        0.00000271        0.00015561
     104          0.277564        0.000000        0.00175214        0.00909417        0.00663961        0.00844593        0.00244150        0.00536314        0.00192779        0.00209602        0.00030121
     105          0.282921        0.000000        0.00051825        0.00391787        0.00888563        0.00025623        0.00064434        0.00563333        0.00470569        0.00318983        0.00015524
     106          0.286036        0.000000        0.00020457        0.00595227        0.00976253        0.01056381        0.00278978        0.00623518        0.00356138        0.00034944        0.00100467
     107          0.296527        0.000000        0.00102610        0.00026143        0.00396113        0.00516543        0.00100864        0.00302858        0.00228100        0.00056481        0.00027422
     108          0.308482        0.000000        0.00438830        0.00548432        0.00870271        0.00893928        0.00691036        0.00714140        0.00745378        0.00121595        0.00130128
     109          0.311036        0.000000        0.01241012        0.00612659        0.00238404        0.00832262        0.00339746        0.00370367        0.00230940        0.00114762        0.00071148
     110          0.314389        0.000000        0.00788478        0.00287809        0.00658806        0.01124341        0.00065122        0.00338800        0.00063943        0.00042843        0.00062381
     111          0.325102        0.000000        0.00026849        0.00522417        0.00386649        0.00459527        0.00046905        0.00017897        0.00021323        0.00020553        0.00016111
