# Projected DOS for atomic kind H at iteration step i = 0, E(Fermi) =    -0.160785 a.u.
#     MO Eigenvalue [a.u.]      Occupation                 s                py                pz                px
       1         -1.040394        2.000000        0.00356860        0.00133585        0.00274117        0.00061427
       2         -1.024279        2.000000        0.00307557        0.00119776        0.00243838        0.00042871
       3         -0.848321        2.000000        0.00718692        0.00326561        0.00163288        0.00160173
       4         -0.835462        2.000000        0.17857341        0.05982085        0.02128379        0.02450696
       5         -0.835031        2.000000        0.05450503        0.00858204        0.01543938        0.01135522
       6         -0.828327        2.000000        0.14899756        0.01140497        0.04676414        0.03186933
       7         -0.812519        2.000000        0.04669395        0.00982860        0.01474985        0.00598720
       8         -0.766274        2.000000        0.07399154        0.01193914        0.01917771        0.00850302
       9         -0.760657        2.000000        0.08195537        0.01646447        0.01783525        0.00841113
      10         -0.708314        2.000000        0.04838148        0.00793535        0.01114680        0.00479538
      11         -0.692289        2.000000        0.07961030        0.01035209        0.01311410        0.00866579
      12         -0.679329        2.000000        0.09839122        0.01232515        0.01622742        0.00482786
      13         -0.673894        2.000000        0.09377489        0.01236258        0.01198769        0.00718531
      14         -0.658573        2.000000        0.05756199        0.00642510        0.00812117        0.00547956
      15         -0.635413        2.000000        0.06920322        0.00902881        0.00955297        0.00554205
      16         -0.595245        2.000000        0.05689112        0.00613083        0.00691539        0.00317204
      17         -0.581021        2.000000        0.07262001        0.00385921        0.00710024        0.00413651
      18         -0.557382        2.000000        0.05617200        0.00593759        0.00494925        0.00542730
      19         -0.551394        2.000000        0.10360619        0.00761188        0.00933773        0.00132067
      20         -0.544009        2.000000        0.10390347        0.00467653        0.00896180        0.00245709
      21         -0.535223        2.000000        0.09121878        0.00457855        0.00492775        0.00600191
      22         -0.501634        2.000000        0.05539620        0.00602642        0.00449311        0.00554864
      23         -0.493475        2.000000        0.08534692        0.00336500        0.00689069        0.00304191
      24         -0.479419        2.000000        0.12690750        0.00539712        0.00607647        0.00586392
      25         -0.471359        2.000000        0.12829569        0.00311653        0.00315168        0.00306392
      26         -0.465160        2.000000        0.14557136        0.00511278        0.00221697        0.00483348
      27         -0.463393        2.000000        0.15080153        0.00308542        0.00367378        0.00535259
      28         -0.450872        2.000000        0.16760231        0.00569958        0.00851928        0.00301839
      29         -0.449063        2.000000        0.17651899        0.00427980        0.00986916        0.00137483
      30         -0.443015        2.000000        0.18698566        0.00145949        0.00402414        0.00178756
      31         -0.427798        2.000000        0.00300739        0.00105191        0.00065171        0.00075733
      32         -0.416468        2.000000        0.00249522        0.00105327        0.00052351        0.00097822
      33         -0.405617        2.000000        0.16158396        0.00230063        0.00224186        0.00350228
      34         -0.399690        2.000000        0.14825065        0.00290530        0.00405897        0.00435994
      35         -0.397237        2.000000        0.23230145        0.00098794        0.00221414        0.00154477
      36         -0.389591        2.000000        0.22349017        0.00160000        0.00285065        0.00156602
      37         -0.375598        2.000000        0.06070352        0.00280615        0.00331282        0.00353247
      38         -0.371378        2.000000        0.06211723        0.00353428        0.00521809        0.00279834
      39         -0.362759        2.000000        0.06172230        0.00444770        0.00214757        0.00265766
      40         -0.358853        2.000000        0.04935489        0.00426830        0.00452506        0.00213513
      41         -0.351144        2.000000        0.05715700        0.00330085        0.00126770        0.00796545
      42         -0.348465        2.000000        0.09998206        0.00244088        0.00219637        0.00538505
      43         -0.344621        2.000000        0.15620785        0.00113917        0.00128649        0.00253930
      44         -0.333486        2.000000        0.03228914        0.00898587        0.00610398        0.00910023
      45         -0.332407        2.000000        0.08203480        0.00668567        0.00185498        0.00469708
      46         -0.326131        2.000000        0.01367107        0.01046869        0.00701737        0.01325085
      47         -0.314747        2.000000        0.12958137        0.00067025        0.00162213        0.00164855
      48         -0.307738        2.000000        0.14620163        0.00085409        0.00164900        0.00131814
      49         -0.300100        2.000000        0.04753013        0.00119982        0.00191210        0.00196810
      50         -0.297469        2.000000        0.02039613        0.00222552        0.00130198        0.00288656
      51         -0.290817        2.000000        0.00280937        0.00636223        0.00146500        0.00569247
      52         -0.273773        2.000000        0.00186212        0.01020936        0.00643982        0.01715459
      53         -0.255774        2.000000        0.00173888        0.01333324        0.00597108        0.01960133
      54         -0.248162        2.000000        0.01277575        0.00089604        0.00078030        0.00180359
      55         -0.235346        2.000000        0.01282894        0.00247550        0.00025278        0.00076443
      56         -0.229878        2.000000        0.00025808        0.00843542        0.00644671        0.01300119
      57         -0.222328        2.000000        0.00068247        0.01426498        0.00587033        0.01666955
      58         -0.216360        2.000000        0.00059966        0.00984898        0.00691428        0.01797896
      59         -0.209434        2.000000        0.00109983        0.01024476        0.00777186        0.02135144
      60         -0.177013        2.000000        0.00361257        0.01324106        0.00758147        0.02580123
      61         -0.160785        2.000000        0.00292002        0.01008901        0.00606994        0.01973461
      62         -0.090851        0.000000        0.00104578        0.00493861        0.00367054        0.00864563
      63         -0.043456        0.000000        0.00275777        0.01685879        0.01180874        0.02453476
      64         -0.029220        0.000000        0.00247224        0.01885094        0.01306205        0.02836937
      65         -0.017586        0.000000        0.00117650        0.01556412        0.00764822        0.02186456
      66         -0.007505        0.000000        0.00582838        0.00903025        0.00613652        0.02194481
      67         -0.002136        0.000000        0.01055615        0.00675059        0.01146579        0.01521015
      68          0.000363        0.000000        0.00973815        0.00922072        0.00530211        0.01260070
      69          0.037700        0.000000        0.03666064        0.00520205        0.01426509        0.01635984
      70          0.044676        0.000000        0.27618692        0.14870731        0.08302049        0.03691196
      71          0.047055        0.000000        0.25748546        0.05052260        0.11940564        0.07597495
      72          0.057391        0.000000        0.02810413        0.00919468        0.00780306        0.00548088
      73          0.068750        0.000000        0.00610705        0.01518005        0.01122207        0.01797784
      74          0.086588        0.000000        0.10376495        0.05562247        0.05030242        0.04726910
      75          0.093989        0.000000        0.14445680        0.07113851        0.08197598        0.06861374
      76          0.094825        0.000000        0.17997146        0.06714048        0.09805053        0.09875840
      77          0.110917        0.000000        0.11725418        0.03865656        0.09151682        0.05933941
      78          0.113034        0.000000        0.09018852        0.08972786        0.03988915        0.02348370
      79          0.117496        0.000000        0.07092502        0.03629039        0.03909385        0.04927759
      80          0.125647        0.000000        0.09379190        0.06513303        0.07229435        0.01536456
      81          0.128758        0.000000        0.08322705        0.03897590        0.04197527        0.04541672
      82          0.133073        0.000000        0.02822626        0.03045245        0.02077457        0.03920095
      83          0.141938        0.000000        0.08203090        0.04811388        0.04757614        0.06616293
      84          0.154065        0.000000        0.18914578        0.01494169        0.18172416        0.07483408
      85          0.155265        0.000000        0.17739577        0.13566669        0.10039393        0.04181459
      86          0.173704        0.000000        0.10685825        0.07712717        0.07092377        0.06293620
      87          0.174135        0.000000        0.08411275        0.04098955        0.06820358        0.06027303
      88          0.178757        0.000000        0.04345054        0.03139730        0.00777907        0.01725303
      89          0.186736        0.000000        0.05091114        0.03572095        0.07547871        0.02465283
      90          0.191195        0.000000        0.05675795        0.04720070        0.05093530        0.02447238
      91          0.195023        0.000000        0.05461669        0.04533288        0.05773658        0.03274153
      92          0.198443        0.000000        0.04153556        0.06749908        0.05272880        0.02514527
      93          0.200276        0.000000        0.09542752        0.04560982        0.07001257        0.04883394
      94          0.213857        0.000000        0.06427014        0.06059633        0.05767524        0.05398310
      95          0.222093        0.000000        0.09001351        0.03158156        0.05314324        0.03189104
      96          0.222726        0.000000        0.07825539        0.05828654        0.05311593        0.03664211
      97          0.226385        0.000000        0.06445383        0.03489377        0.03916461        0.01391375
      98          0.239989        0.000000        0.05539042        0.05916558        0.03787942        0.03252281
      99          0.250589        0.000000        0.07999848        0.03384366        0.03661035        0.02396439
     100          0.253230        0.000000        0.01376348        0.02978453        0.01843461        0.02237929
     101          0.258978        0.000000        0.07130776        0.02578302        0.05942538        0.03464936
     102          0.270185        0.000000        0.01731474        0.06313209        0.01361008        0.05609246
     103          0.272739        0.000000        0.03156882        0.04720307        0.04453878        0.05604554
     104          0.277865        0.000000        0.07742940        0.04215356        0.06556607        0.02845026
     105          0.286547        0.000000        0.10449474        0.08159649        0.05394091        0.04354696
     106          0.291596        0.000000        0.03951428        0.05151080        0.04290658        0.03963644
     107          0.297932        0.000000        0.06285767        0.01853141        0.04354809        0.06887145
     108          0.307241        0.000000        0.09935115        0.01064974        0.06305977        0.03458806
     109          0.316538        0.000000        0.05561107        0.04198807        0.06166443        0.01265445
     110          0.319486        0.000000        0.06570546        0.02974357        0.05724739        0.04069091
     111          0.321814        0.000000        0.03136930        0.02625639        0.03912725        0.04571748
