# Projected DOS for atomic kind N at iteration step i = 0, E(Fermi) =    -0.160785 a.u.
#     MO Eigenvalue [a.u.]      Occupation                 s                py                pz                px               d-2               d-1                d0               d+1               d+2
       1         -1.040394        2.000000        0.04077850        0.01949168        0.01504547        0.00023490        0.00026183        0.00118000        0.00000082        0.00000981        0.00027693
       2         -1.024279        2.000000        0.04187226        0.00070195        0.03038008        0.00412429        0.00014884        0.00003592        0.00073897        0.00078257        0.00001778
       3         -0.848321        2.000000        0.27718379        0.02106411        0.02009699        0.00038229        0.00165337        0.00016346        0.00013591        0.00086363        0.00000406
       4         -0.835462        2.000000        0.31290424        0.00135328        0.02030800        0.00177042        0.00054116        0.00012353        0.00063092        0.00214795        0.00006966
       5         -0.835031        2.000000        0.27511658        0.00755260        0.02587205        0.00121167        0.00215297        0.00027547        0.00011071        0.00033626        0.00004809
       6         -0.828327        2.000000        0.30389947        0.01504952        0.00979304        0.00215029        0.00159170        0.00092294        0.00020156        0.00018575        0.00010224
       7         -0.812519        2.000000        0.01781772        0.00671294        0.00264313        0.00950191        0.00012472        0.00019257        0.00010883        0.00017527        0.00003527
       8         -0.766274        2.000000        0.06661162        0.01812131        0.00801214        0.02521504        0.00033022        0.00052041        0.00032143        0.00103579        0.00035045
       9         -0.760657        2.000000        0.06945843        0.00944808        0.01023003        0.01779203        0.00029490        0.00028418        0.00033509        0.00072070        0.00037958
      10         -0.708314        2.000000        0.02436728        0.01053484        0.01032730        0.01432412        0.00046215        0.00084438        0.00051696        0.00047035        0.00018110
      11         -0.692289        2.000000        0.00454803        0.00154354        0.00415230        0.00115783        0.00013421        0.00030891        0.00013468        0.00015714        0.00006075
      12         -0.679329        2.000000        0.00525033        0.01057676        0.00388548        0.01856931        0.00013987        0.00016014        0.00023024        0.00030808        0.00012890
      13         -0.673894        2.000000        0.00609674        0.00620797        0.00228688        0.00932711        0.00002809        0.00014685        0.00009905        0.00016883        0.00008166
      14         -0.658573        2.000000        0.02595005        0.03874646        0.02303595        0.04906809        0.00052768        0.00179560        0.00098245        0.00237917        0.00098433
      15         -0.635413        2.000000        0.03908986        0.01868785        0.03716016        0.02409299        0.00031000        0.00118664        0.00125791        0.00161939        0.00103300
      16         -0.595245        2.000000        0.02880970        0.01182172        0.03474078        0.00427762        0.00055144        0.00102526        0.00091402        0.00014505        0.00026915
      17         -0.581021        2.000000        0.00517650        0.01065876        0.00961363        0.00844278        0.00007947        0.00027045        0.00007977        0.00007433        0.00001555
      18         -0.557382        2.000000        0.00891457        0.03364965        0.03602536        0.06994699        0.00106607        0.00091822        0.00178304        0.00126021        0.00054874
      19         -0.551394        2.000000        0.02179034        0.03784893        0.03292891        0.02349278        0.00070723        0.00212117        0.00124456        0.00103294        0.00050218
      20         -0.544009        2.000000        0.02843186        0.02487676        0.02685634        0.02127594        0.00007111        0.00180201        0.00031655        0.00047663        0.00037351
      21         -0.535223        2.000000        0.01704225        0.04478826        0.02693430        0.07495735        0.00035080        0.00053726        0.00123802        0.00131613        0.00087387
      22         -0.501634        2.000000        0.00593663        0.02158897        0.07551251        0.03441439        0.00156665        0.00150766        0.00332529        0.00135976        0.00087982
      23         -0.493475        2.000000        0.01717210        0.11429276        0.03098802        0.03308602        0.00033518        0.00260567        0.00050536        0.00181887        0.00257359
      24         -0.479419        2.000000        0.01103484        0.09329090        0.07434903        0.07446432        0.00132204        0.00035951        0.00253785        0.00073955        0.00043468
      25         -0.471359        2.000000        0.00299040        0.04309325        0.04772091        0.10644937        0.00182239        0.00050237        0.00184898        0.00073106        0.00049682
      26         -0.465160        2.000000        0.00294935        0.05810324        0.01337645        0.09469020        0.00028003        0.00039608        0.00059159        0.00087911        0.00106986
      27         -0.463393        2.000000        0.00101921        0.13025264        0.03840442        0.04420898        0.00167796        0.00301108        0.00116378        0.00117930        0.00065613
      28         -0.450872        2.000000        0.01549126        0.02505671        0.06898842        0.02439915        0.00026330        0.00148685        0.00081014        0.00059436        0.00052451
      29         -0.449063        2.000000        0.01757760        0.08622545        0.15377498        0.00571589        0.00114777        0.00256279        0.00209132        0.00041093        0.00094756
      30         -0.443015        2.000000        0.00550836        0.12563304        0.14700090        0.07398655        0.00183392        0.00264117        0.00370370        0.00299910        0.00195545
      31         -0.427798        2.000000        0.00025349        0.02725579        0.03532620        0.03340536        0.00073619        0.00024042        0.00211342        0.00109270        0.00111588
      32         -0.416468        2.000000        0.00010113        0.03535981        0.01183434        0.04879795        0.00045310        0.00122015        0.00135034        0.00141356        0.00031598
      33         -0.405617        2.000000        0.00213119        0.06208230        0.01851190        0.06058970        0.00240705        0.00175579        0.00345151        0.00024919        0.00090106
      34         -0.399690        2.000000        0.00549555        0.06121944        0.02075561        0.07077745        0.00209874        0.00130912        0.00210364        0.00035319        0.00065446
      35         -0.397237        2.000000        0.00257231        0.01548372        0.00478804        0.01634340        0.00041713        0.00010074        0.00034417        0.00006036        0.00021282
      36         -0.389591        2.000000        0.00356997        0.00913693        0.00613513        0.01308465        0.00054392        0.00040200        0.00068151        0.00026275        0.00017284
      37         -0.375598        2.000000        0.01035914        0.02572740        0.04046579        0.03217353        0.00086219        0.00097328        0.00041107        0.00044716        0.00074120
      38         -0.371378        2.000000        0.00823878        0.00364287        0.04852557        0.00600858        0.00119580        0.00040925        0.00233773        0.00041001        0.00026902
      39         -0.362759        2.000000        0.00166666        0.01613814        0.01456479        0.02265668        0.00165261        0.00082901        0.00390929        0.00147859        0.00062186
      40         -0.358853        2.000000        0.00333595        0.04834832        0.00135255        0.01833472        0.00224052        0.00381065        0.00131160        0.00181254        0.00136674
      41         -0.351144        2.000000        0.00346058        0.00674306        0.00452123        0.03786825        0.00131267        0.00139083        0.00028126        0.00001707        0.00086929
      42         -0.348465        2.000000        0.00356371        0.01200658        0.01063534        0.03317079        0.00071966        0.00019646        0.00093104        0.00025872        0.00059029
      43         -0.344621        2.000000        0.00387897        0.01857338        0.00527754        0.03257241        0.00050307        0.00033932        0.00046641        0.00034104        0.00015031
      44         -0.333486        2.000000        0.00260841        0.04110626        0.02920749        0.04494219        0.00028562        0.00060516        0.00089979        0.00067610        0.00238771
      45         -0.332407        2.000000        0.00243840        0.05125783        0.00792989        0.03793222        0.00024416        0.00067404        0.00054313        0.00052912        0.00065124
      46         -0.326131        2.000000        0.00154086        0.04042971        0.03710588        0.05798519        0.00028547        0.00055872        0.00127010        0.00085886        0.00110338
      47         -0.314747        2.000000        0.00400547        0.00640035        0.01684589        0.00551818        0.00095610        0.00183736        0.00058137        0.00069355        0.00018518
      48         -0.307738        2.000000        0.00309341        0.00724414        0.01833621        0.00618644        0.00098292        0.00190124        0.00110979        0.00058701        0.00039914
      49         -0.300100        2.000000        0.00052444        0.04396260        0.03209108        0.02926846        0.00086907        0.00055140        0.00045892        0.00014705        0.00007355
      50         -0.297469        2.000000        0.00048689        0.04374219        0.07119528        0.10666255        0.00023079        0.00019284        0.00226291        0.00016504        0.00006005
      51         -0.290817        2.000000        0.00132998        0.11867356        0.04746261        0.13241570        0.00028592        0.00018058        0.00114622        0.00126070        0.00074415
      52         -0.273773        2.000000        0.00447109        0.06885004        0.04357094        0.12712874        0.00008314        0.00145916        0.00077253        0.00078340        0.00482475
      53         -0.255774        2.000000        0.00682135        0.14431251        0.04458915        0.18829714        0.00003445        0.00127845        0.00035212        0.00061269        0.00382490
      54         -0.248162        2.000000        0.10176002        0.20004519        0.34074297        0.01452640        0.00200712        0.00011907        0.00038793        0.00053862        0.00017099
      55         -0.235346        2.000000        0.09479714        0.07386674        0.48215974        0.00823559        0.00268129        0.00004657        0.00020609        0.00046212        0.00000729
      56         -0.229878        2.000000        0.00058370        0.00786160        0.00045782        0.00697728        0.00001243        0.00000204        0.00001927        0.00001915        0.00000718
      57         -0.222328        2.000000        0.00178583        0.05958852        0.01696415        0.07430375        0.00001576        0.00003205        0.00013854        0.00017177        0.00045295
      58         -0.216360        2.000000        0.00099509        0.02799219        0.02912362        0.03924808        0.00004984        0.00012146        0.00018688        0.00002849        0.00023018
      59         -0.209434        2.000000        0.00211893        0.03229119        0.02135769        0.06387295        0.00006442        0.00001248        0.00008640        0.00008767        0.00025860
      60         -0.177013        2.000000        0.00601172        0.08351588        0.04260760        0.14062036        0.00034482        0.00189134        0.00154709        0.00136275        0.00740420
      61         -0.160785        2.000000        0.00414541        0.07736149        0.04707602        0.12707473        0.00037040        0.00144590        0.00165181        0.00133983        0.00513872
      62         -0.090851        0.000000        0.00079576        0.05736427        0.04080875        0.07613428        0.00028155        0.00120407        0.00123037        0.00109022        0.00278895
      63         -0.043456        0.000000        0.00089929        0.01833775        0.01322034        0.02115119        0.00054149        0.00271130        0.00178929        0.00144468        0.00802512
      64         -0.029220        0.000000        0.00077264        0.00386162        0.00286225        0.00685099        0.00037952        0.00025408        0.00120670        0.00043684        0.00180081
      65         -0.017586        0.000000        0.00025266        0.01263578        0.00576870        0.01344370        0.00010535        0.00171105        0.00095693        0.00119629        0.00432837
      66         -0.007505        0.000000        0.00223199        0.01524129        0.01435511        0.02662134        0.00121030        0.00353111        0.00584206        0.00370942        0.00866204
      67         -0.002136        0.000000        0.00467244        0.02450175        0.01920630        0.03158074        0.00064275        0.00151367        0.00476518        0.00269292        0.00198591
      68          0.000363        0.000000        0.00422775        0.02256648        0.01058125        0.02786350        0.00175132        0.00041990        0.00255432        0.00164840        0.00265518
      69          0.037700        0.000000        0.02140787        0.04877806        0.01519606        0.04787561        0.00651807        0.00326987        0.00120999        0.00137732        0.00765300
      70          0.044676        0.000000        0.19083688        0.01412886        0.02827115        0.02513747        0.00219539        0.00627478        0.00032806        0.00376991        0.00885948
      71          0.047055        0.000000        0.17993933        0.01945365        0.02333562        0.03199231        0.00631751        0.00058678        0.00325966        0.00581315        0.00138115
      72          0.057391        0.000000        0.01129556        0.01513158        0.02542751        0.01625522        0.00304925        0.00241454        0.00636680        0.00386090        0.00173498
      73          0.068750        0.000000        0.00305618        0.02934324        0.01286771        0.03201808        0.00174351        0.00304379        0.00248588        0.00109125        0.00928317
      74          0.086588        0.000000        0.01210149        0.02682156        0.02855851        0.01405923        0.00866639        0.00506139        0.00724716        0.00390716        0.00198945
      75          0.093989        0.000000        0.01014121        0.04654707        0.00821291        0.01381000        0.00719073        0.00636301        0.00177933        0.00181608        0.00069806
      76          0.094825        0.000000        0.00349891        0.03874913        0.02230572        0.03134039        0.00543381        0.00398761        0.01167054        0.00129095        0.00322716
      77          0.110917        0.000000        0.00478100        0.00867976        0.05928698        0.02777665        0.00383379        0.00130063        0.01259149        0.00187287        0.00132306
      78          0.113034        0.000000        0.00954310        0.02511170        0.03199540        0.00580536        0.00426100        0.00538479        0.00786283        0.00196789        0.00058106
      79          0.117496        0.000000        0.04449755        0.02308283        0.00510103        0.01329576        0.00459531        0.00135442        0.00422635        0.00278394        0.00318789
      80          0.125647        0.000000        0.00629336        0.00793469        0.01425140        0.00750331        0.00178161        0.00074226        0.00173065        0.00541338        0.00217283
      81          0.128758        0.000000        0.02289899        0.02410330        0.00724667        0.01887175        0.00546857        0.00097864        0.00291596        0.00187892        0.00295933
      82          0.133073        0.000000        0.00501392        0.01725371        0.00519422        0.01846731        0.00052681        0.00004748        0.00467579        0.00501325        0.00475944
      83          0.141938        0.000000        0.08296506        0.01702113        0.01589788        0.00824396        0.00280634        0.00196201        0.00286163        0.00203805        0.00198019
      84          0.154065        0.000000        0.01378689        0.01705359        0.02694934        0.01426545        0.00137243        0.00222420        0.01266555        0.00148775        0.00704642
      85          0.155265        0.000000        0.00537762        0.02744190        0.00746356        0.00368867        0.00510047        0.00283865        0.00577159        0.00249113        0.00108276
      86          0.173704        0.000000        0.01120620        0.01334574        0.00811054        0.01018578        0.01088772        0.00591288        0.00647262        0.00403361        0.00248203
      87          0.174135        0.000000        0.01275140        0.01202162        0.00743032        0.00981201        0.00546626        0.00350870        0.00444852        0.00441539        0.00288376
      88          0.178757        0.000000        0.03142059        0.01220106        0.01221615        0.02947979        0.00535688        0.00187715        0.00085934        0.00604701        0.00139716
      89          0.186736        0.000000        0.01211528        0.02029009        0.02014011        0.01019628        0.00583505        0.00672828        0.00860586        0.00664374        0.00249608
      90          0.191195        0.000000        0.00396839        0.01992847        0.03053422        0.02001201        0.00494698        0.00722419        0.00542190        0.00358244        0.00250515
      91          0.195023        0.000000        0.01349080        0.00627090        0.03477383        0.02214565        0.00777684        0.00473530        0.00175512        0.00636271        0.00263804
      92          0.198443        0.000000        0.00651096        0.01601162        0.03565549        0.01405570        0.00312231        0.00266687        0.00097510        0.00447726        0.00080047
      93          0.200276        0.000000        0.00045993        0.01358027        0.00950111        0.00848976        0.00281996        0.00130288        0.00345582        0.00037759        0.00063025
      94          0.213857        0.000000        0.02168166        0.02864462        0.04051813        0.00696477        0.00132612        0.01531447        0.00760342        0.01019462        0.00658478
      95          0.222093        0.000000        0.01956409        0.02069932        0.02610469        0.01102611        0.00090479        0.00506631        0.00722972        0.00691092        0.00184945
      96          0.222726        0.000000        0.02939293        0.02298333        0.02276829        0.01801724        0.00362564        0.01192924        0.00268571        0.00382891        0.00392937
      97          0.226385        0.000000        0.02815437        0.01251806        0.02441643        0.02307459        0.00221951        0.00269356        0.00236863        0.00161098        0.00188126
      98          0.239989        0.000000        0.01002933        0.01959593        0.01885785        0.01636939        0.00699196        0.00428310        0.00882514        0.00481231        0.00442731
      99          0.250589        0.000000        0.00237129        0.01031163        0.00876583        0.01649459        0.00062236        0.00251218        0.00025363        0.00504395        0.00214124
     100          0.253230        0.000000        0.00180798        0.03531694        0.02392915        0.03980160        0.00026487        0.00153127        0.00292063        0.00063561        0.00155878
     101          0.258978        0.000000        0.00156001        0.01760447        0.01326467        0.02367452        0.00536321        0.00234075        0.00170912        0.00294315        0.00144376
     102          0.270185        0.000000        0.00645890        0.04799208        0.04844496        0.08951717        0.00096706        0.00610223        0.00323149        0.00277187        0.00467538
     103          0.272739        0.000000        0.00310498        0.05458116        0.02447137        0.05255420        0.00363646        0.00260129        0.00935604        0.00820479        0.00543857
     104          0.277865        0.000000        0.00339301        0.03807498        0.02634042        0.04341408        0.00578729        0.01294297        0.00757843        0.00926310        0.00593588
     105          0.286547        0.000000        0.00191507        0.01455747        0.05519902        0.03604161        0.00495092        0.00918625        0.03571367        0.01491241        0.01175331
     106          0.291596        0.000000        0.00289911        0.05463345        0.05158752        0.05651106        0.00213364        0.00599698        0.00359969        0.00216394        0.00577410
     107          0.297932        0.000000        0.00388566        0.03533156        0.04211386        0.05263565        0.00197908        0.01435020        0.00717167        0.00489276        0.00265231
     108          0.307241        0.000000        0.00912580        0.01346968        0.04089279        0.01613432        0.00411189        0.00050335        0.01262722        0.00396264        0.00047413
     109          0.316538        0.000000        0.04914187        0.06244744        0.11307958        0.00204578        0.00832574        0.00437337        0.00583251        0.00255762        0.00263854
     110          0.319486        0.000000        0.03251498        0.01432004        0.09442164        0.04936090        0.00343896        0.00618245        0.00694136        0.00294975        0.00249705
     111          0.321814        0.000000        0.02498007        0.05104552        0.08606260        0.02215368        0.00724703        0.00482330        0.00661533        0.00457121        0.00181014
