# Projected DOS for atomic kind H at iteration step i = 0, E(Fermi) =    -0.157485 a.u.
#     MO Eigenvalue [a.u.]      Occupation                 s                py                pz                px
       1         -1.028345        2.000000        0.00313786        0.00121764        0.00233259        0.00055924
       2         -1.022104        2.000000        0.00342905        0.00108537        0.00308362        0.00043218
       3         -0.856929        2.000000        0.17739400        0.05893678        0.03838500        0.01360858
       4         -0.850008        2.000000        0.19091832        0.01546713        0.05408237        0.04477248
       5         -0.842434        2.000000        0.00697329        0.00129427        0.00295189        0.00190894
       6         -0.830374        2.000000        0.00611633        0.00275365        0.00169265        0.00124699
       7         -0.809242        2.000000        0.03510665        0.00657685        0.01156536        0.00626589
       8         -0.761045        2.000000        0.06973199        0.01858825        0.01305535        0.00599485
       9         -0.753146        2.000000        0.07438439        0.01016946        0.02029561        0.00925102
      10         -0.706732        2.000000        0.04191371        0.00715560        0.00830675        0.00537250
      11         -0.680876        2.000000        0.08187832        0.01192070        0.01190515        0.00848168
      12         -0.672907        2.000000        0.11260986        0.01214515        0.02005921        0.00658883
      13         -0.668696        2.000000        0.10195100        0.01275880        0.01357625        0.00795550
      14         -0.658494        2.000000        0.05478446        0.00807234        0.00482587        0.00630188
      15         -0.633916        2.000000        0.06554121        0.00930851        0.00634026        0.00628657
      16         -0.593308        2.000000        0.06312945        0.00706487        0.00598595        0.00293860
      17         -0.575232        2.000000        0.07253180        0.00440159        0.00686031        0.00493197
      18         -0.557625        2.000000        0.06205981        0.00719760        0.00215631        0.00789909
      19         -0.549973        2.000000        0.09862605        0.00602026        0.00903887        0.00286778
      20         -0.541305        2.000000        0.11114936        0.00269269        0.01205394        0.00106379
      21         -0.536756        2.000000        0.10113827        0.00798956        0.00465311        0.00467236
      22         -0.506929        2.000000        0.08117584        0.00907154        0.00273447        0.00593660
      23         -0.493644        2.000000        0.08562701        0.00169342        0.00758085        0.00303732
      24         -0.482949        2.000000        0.12206048        0.00385268        0.00792533        0.00472944
      25         -0.478514        2.000000        0.09897869        0.00369466        0.00578594        0.00331754
      26         -0.469070        2.000000        0.13984876        0.00532599        0.00250105        0.00644094
      27         -0.463127        2.000000        0.16805623        0.00417310        0.00508782        0.00354096
      28         -0.450918        2.000000        0.17014955        0.00231116        0.00755204        0.00174272
      29         -0.440783        2.000000        0.17604869        0.00452107        0.00864760        0.00195221
      30         -0.439526        2.000000        0.17486975        0.00195210        0.00499596        0.00171603
      31         -0.418496        2.000000        0.00374333        0.00105703        0.00106146        0.00066912
      32         -0.414902        2.000000        0.00165171        0.00089589        0.00041073        0.00124032
      33         -0.407243        2.000000        0.14393274        0.00272405        0.00223878        0.00386549
      34         -0.401479        2.000000        0.11012312        0.00273815        0.00244277        0.00433094
      35         -0.392466        2.000000        0.22248423        0.00170586        0.00185517        0.00122788
      36         -0.390982        2.000000        0.23874597        0.00152958        0.00188812        0.00059674
      37         -0.377653        2.000000        0.06795543        0.00237519        0.00180324        0.00239742
      38         -0.363154        2.000000        0.08067406        0.00508933        0.00377303        0.00334106
      39         -0.360312        2.000000        0.10056061        0.00280941        0.00487725        0.00183774
      40         -0.349741        2.000000        0.05682332        0.00296456        0.00516689        0.00400628
      41         -0.348901        2.000000        0.11882490        0.00317713        0.00183072        0.00278412
      42         -0.347112        2.000000        0.05608651        0.00389229        0.00300978        0.01134745
      43         -0.340199        2.000000        0.05537765        0.00466696        0.00290408        0.01255775
      44         -0.337445        2.000000        0.05176668        0.00465868        0.00135183        0.00777710
      45         -0.335432        2.000000        0.09819709        0.00685168        0.00219272        0.00359692
      46         -0.327888        2.000000        0.02153500        0.01649269        0.00340282        0.01055496
      47         -0.309884        2.000000        0.12409874        0.00083520        0.00054990        0.00128429
      48         -0.303136        2.000000        0.13290404        0.00081912        0.00106265        0.00239539
      49         -0.295577        2.000000        0.02109122        0.00298178        0.00085367        0.00297673
      50         -0.294950        2.000000        0.08923904        0.00138689        0.00056885        0.00165333
      51         -0.290509        2.000000        0.00161367        0.00316662        0.00273188        0.00524746
      52         -0.276259        2.000000        0.00118089        0.01016303        0.00440868        0.01521870
      53         -0.255400        2.000000        0.00144712        0.01225518        0.00550594        0.01868181
      54         -0.242836        2.000000        0.01479032        0.00077140        0.00032357        0.00150351
      55         -0.240315        2.000000        0.01353778        0.00172618        0.00049893        0.00062096
      56         -0.223351        2.000000        0.00053110        0.00992360        0.00979426        0.00872030
      57         -0.219162        2.000000        0.00101879        0.00995659        0.00630233        0.01712553
      58         -0.209851        2.000000        0.00031900        0.01427442        0.00515548        0.01925066
      59         -0.207451        2.000000        0.00078188        0.01066186        0.00856137        0.02006084
      60         -0.174869        2.000000        0.00264489        0.01276034        0.00691914        0.02356712
      61         -0.157485        2.000000        0.00195281        0.00936902        0.00635976        0.01901224
      62         -0.089348        0.000000        0.00086427        0.00691042        0.00493384        0.00784784
      63         -0.046254        0.000000        0.00252369        0.01505382        0.01094892        0.02159281
      64         -0.028439        0.000000        0.00220637        0.02099435        0.00930012        0.02952006
      65         -0.020899        0.000000        0.00179664        0.01415567        0.01056407        0.02490621
      66         -0.003919        0.000000        0.01644090        0.00305103        0.00541335        0.00207568
      67         -0.002665        0.000000        0.00770445        0.01224608        0.01074154        0.02148577
      68          0.002962        0.000000        0.01015883        0.01344900        0.01697519        0.01827200
      69          0.038839        0.000000        0.08689306        0.03826366        0.03488760        0.01603962
      70          0.043814        0.000000        0.22253940        0.09636419        0.07967533        0.04639347
      71          0.046545        0.000000        0.23650454        0.04506418        0.14525552        0.05384814
      72          0.053872        0.000000        0.04481520        0.01193816        0.00853845        0.00908850
      73          0.063731        0.000000        0.01034223        0.01030715        0.01264403        0.01936429
      74          0.086368        0.000000        0.14313562        0.10533589        0.08636334        0.02924908
      75          0.094660        0.000000        0.17073681        0.09487825        0.07891259        0.08294342
      76          0.097415        0.000000        0.13561794        0.09326332        0.05237576        0.05965966
      77          0.107923        0.000000        0.09856510        0.04758612        0.06407103        0.03964558
      78          0.110102        0.000000        0.14908890        0.03071733        0.10751007        0.07071813
      79          0.115457        0.000000        0.12580747        0.05788739        0.11262865        0.01864934
      80          0.122604        0.000000        0.03736570        0.03835989        0.01604901        0.03590924
      81          0.125619        0.000000        0.06428674        0.03435898        0.02171383        0.03601813
      82          0.134209        0.000000        0.01643881        0.02106359        0.02071157        0.03578102
      83          0.143044        0.000000        0.07627681        0.03079273        0.02830403        0.08424186
      84          0.159073        0.000000        0.18613432        0.10000030        0.12581302        0.03704361
      85          0.159897        0.000000        0.19422297        0.03353894        0.18204906        0.06046713
      86          0.169776        0.000000        0.13470894        0.07981197        0.07023128        0.06423733
      87          0.172351        0.000000        0.13358640        0.09506265        0.07937605        0.05260108
      88          0.180389        0.000000        0.04088110        0.02107924        0.01528352        0.00555297
      89          0.189426        0.000000        0.02524604        0.04056933        0.04654109        0.03038543
      90          0.190429        0.000000        0.06217267        0.03281250        0.04008007        0.03278677
      91          0.193808        0.000000        0.04154441        0.06921383        0.07961307        0.02171037
      92          0.197147        0.000000        0.05406086        0.02473325        0.07918861        0.02893514
      93          0.210047        0.000000        0.07132229        0.05101631        0.03581307        0.05048208
      94          0.211033        0.000000        0.05561912        0.07921555        0.02728051        0.05530652
      95          0.217808        0.000000        0.08787020        0.04211912        0.06731840        0.01971268
      96          0.227376        0.000000        0.08046980        0.02986609        0.06171805        0.04432427
      97          0.230100        0.000000        0.07262503        0.02348305        0.07483498        0.01575198
      98          0.232487        0.000000        0.05666291        0.03929996        0.05184202        0.04736703
      99          0.246610        0.000000        0.05126218        0.04317373        0.04664279        0.03246247
     100          0.258761        0.000000        0.02570570        0.04549961        0.01915082        0.03448446
     101          0.261104        0.000000        0.04381315        0.02955440        0.02582736        0.04618458
     102          0.267026        0.000000        0.05189305        0.06311576        0.06517399        0.03296159
     103          0.272936        0.000000        0.01448773        0.05627701        0.01295758        0.06668420
     104          0.278817        0.000000        0.03458075        0.03467354        0.00859454        0.02074985
     105          0.283944        0.000000        0.06888518        0.08476605        0.03314200        0.05613699
     106          0.286353        0.000000        0.06982216        0.05172047        0.08153450        0.03037537
     107          0.298318        0.000000        0.04098513        0.02016189        0.05032305        0.07058938
     108          0.310984        0.000000        0.08752023        0.01604730        0.05480141        0.01318038
     109          0.313290        0.000000        0.08190743        0.04798652        0.04827537        0.01525327
     110          0.316821        0.000000        0.05374148        0.03556505        0.05528214        0.01950413
     111          0.328232        0.000000        0.04219384        0.03170827        0.03622246        0.02166600
