# Projected DOS for atomic kind N at iteration step i = 0, E(Fermi) =    -0.163299 a.u.
#     MO Eigenvalue [a.u.]      Occupation                 s                py                pz                px               d-2               d-1                d0               d+1               d+2
       1         -1.033870        2.000000        0.04409869        0.02047799        0.01489763        0.00025501        0.00034466        0.00110200        0.00000272        0.00002369        0.00024703
       2         -1.018894        2.000000        0.04889423        0.00080808        0.03238771        0.00469975        0.00019414        0.00004326        0.00071758        0.00088949        0.00002236
       3         -0.849072        2.000000        0.27219999        0.01704065        0.01972249        0.00101480        0.00144764        0.00007387        0.00012783        0.00122538        0.00006361
       4         -0.843950        2.000000        0.27706851        0.01019272        0.02157717        0.00129438        0.00232980        0.00038337        0.00013424        0.00013055        0.00004395
       5         -0.839912        2.000000        0.30485048        0.01257839        0.01271493        0.00190302        0.00189553        0.00063737        0.00020772        0.00026743        0.00006359
       6         -0.839288        2.000000        0.32458174        0.00297196        0.01913573        0.00123585        0.00020403        0.00023235        0.00052375        0.00236174        0.00003259
       7         -0.819275        2.000000        0.01057557        0.00636276        0.00224009        0.00951765        0.00008393        0.00017980        0.00009493        0.00015490        0.00002846
       8         -0.766948        2.000000        0.05046191        0.01883124        0.00965523        0.02998192        0.00039324        0.00051040        0.00042351        0.00099552        0.00039948
       9         -0.761481        2.000000        0.06108628        0.01373780        0.00997228        0.01951540        0.00019839        0.00041501        0.00034000        0.00081306        0.00035119
      10         -0.711290        2.000000        0.02248618        0.01161436        0.01038036        0.01644909        0.00048172        0.00082732        0.00056759        0.00043989        0.00016292
      11         -0.688807        2.000000        0.00432521        0.00309567        0.00479457        0.00123730        0.00011330        0.00047887        0.00011108        0.00019444        0.00008613
      12         -0.677243        2.000000        0.00383927        0.00806670        0.00384252        0.01648036        0.00011710        0.00013251        0.00018314        0.00020109        0.00007292
      13         -0.671263        2.000000        0.00618205        0.00512707        0.00320208        0.01096433        0.00003306        0.00016081        0.00012417        0.00017223        0.00007042
      14         -0.661788        2.000000        0.02325820        0.04222605        0.02345250        0.05656707        0.00058675        0.00193794        0.00106672        0.00248667        0.00099996
      15         -0.639594        2.000000        0.03549195        0.02133726        0.03954421        0.03187357        0.00034808        0.00117660        0.00158671        0.00182307        0.00109204
      16         -0.597292        2.000000        0.02637012        0.01415537        0.03880285        0.00773687        0.00060112        0.00133505        0.00111140        0.00017870        0.00029948
      17         -0.579535        2.000000        0.00442166        0.00898271        0.01059984        0.00645286        0.00005426        0.00033073        0.00006457        0.00005838        0.00001352
      18         -0.557332        2.000000        0.00647851        0.02915807        0.04598803        0.09173093        0.00099857        0.00042059        0.00209504        0.00142712        0.00053592
      19         -0.549623        2.000000        0.01412553        0.06525604        0.03939408        0.06224894        0.00092930        0.00258589        0.00166031        0.00199608        0.00098382
      20         -0.542235        2.000000        0.03257305        0.03030970        0.02270183        0.01613337        0.00013888        0.00250041        0.00036008        0.00049266        0.00048404
      21         -0.538102        2.000000        0.02262167        0.02480453        0.02588988        0.05475354        0.00024312        0.00075353        0.00110382        0.00076491        0.00060788
      22         -0.502396        2.000000        0.00477208        0.03107157        0.08030092        0.03336211        0.00142511        0.00195548        0.00328231        0.00153818        0.00140807
      23         -0.493779        2.000000        0.01752655        0.07174978        0.03977330        0.04698920        0.00050339        0.00139670        0.00137359        0.00183236        0.00169246
      24         -0.480062        2.000000        0.01082826        0.09080702        0.07739218        0.10456638        0.00068764        0.00058625        0.00171582        0.00116963        0.00142805
      25         -0.470850        2.000000        0.00476857        0.05853903        0.07716906        0.11356870        0.00176917        0.00156879        0.00226371        0.00099190        0.00084248
      26         -0.466471        2.000000        0.00098121        0.05948073        0.02549025        0.05743513        0.00113167        0.00031385        0.00090749        0.00060136        0.00071771
      27         -0.460699        2.000000        0.00260427        0.08969440        0.06724336        0.06990803        0.00093848        0.00205675        0.00163592        0.00109903        0.00051910
      28         -0.449306        2.000000        0.01800477        0.02154884        0.13054676        0.01358311        0.00055654        0.00168894        0.00264514        0.00039561        0.00017154
      29         -0.447697        2.000000        0.00751677        0.01529132        0.09066156        0.05905205        0.00105842        0.00072854        0.00273534        0.00182620        0.00044504
      30         -0.442787        2.000000        0.00672252        0.22407520        0.03503497        0.02092166        0.00345531        0.00260778        0.00040631        0.00101694        0.00290607
      31         -0.425303        2.000000        0.00031138        0.03113281        0.04068795        0.03161844        0.00071093        0.00030584        0.00220462        0.00100414        0.00093772
      32         -0.415853        2.000000        0.00009404        0.04554140        0.01509618        0.05344709        0.00056093        0.00139815        0.00156057        0.00135697        0.00039782
      33         -0.407911        2.000000        0.00355107        0.07145203        0.02129200        0.07888187        0.00191332        0.00112963        0.00447834        0.00060881        0.00176139
      34         -0.396858        2.000000        0.00608438        0.06618724        0.02047449        0.06225784        0.00323066        0.00150811        0.00135617        0.00019040        0.00059620
      35         -0.388625        2.000000        0.00652438        0.00580103        0.00998639        0.01744781        0.00069590        0.00019501        0.00059500        0.00028010        0.00017071
      36         -0.386886        2.000000        0.00051827        0.01479485        0.00068796        0.00358352        0.00036178        0.00008882        0.00004563        0.00000571        0.00012180
      37         -0.379067        2.000000        0.00885229        0.03354147        0.01934641        0.02933224        0.00107219        0.00129746        0.00036362        0.00044639        0.00074653
      38         -0.369865        2.000000        0.00907249        0.01052797        0.03826970        0.00975124        0.00173484        0.00077318        0.00181548        0.00035852        0.00040704
      39         -0.362581        2.000000        0.00276533        0.01825743        0.02406657        0.01373406        0.00200865        0.00128451        0.00387927        0.00187885        0.00092717
      40         -0.359781        2.000000        0.00516986        0.03980974        0.00233671        0.02732187        0.00106862        0.00145617        0.00086923        0.00110066        0.00090300
      41         -0.353242        2.000000        0.00200197        0.01281776        0.00245548        0.01903128        0.00054817        0.00047512        0.00038251        0.00028435        0.00135664
      42         -0.348433        2.000000        0.00368798        0.00823371        0.00570756        0.03933201        0.00231328        0.00222423        0.00031950        0.00014882        0.00048793
      43         -0.345890        2.000000        0.00419363        0.01449749        0.00310680        0.04317165        0.00084373        0.00044459        0.00131271        0.00037771        0.00036368
      44         -0.334424        2.000000        0.00220075        0.01734238        0.01361296        0.02459773        0.00013993        0.00016915        0.00021593        0.00028252        0.00051321
      45         -0.333187        2.000000        0.00276488        0.07460743        0.02404758        0.04346809        0.00030975        0.00081452        0.00177495        0.00082380        0.00238156
      46         -0.326611        2.000000        0.00324093        0.03618083        0.05936916        0.06211941        0.00025414        0.00059298        0.00191326        0.00104647        0.00102632
      47         -0.314877        2.000000        0.00397753        0.00868853        0.01449699        0.00478460        0.00111741        0.00169438        0.00037447        0.00065219        0.00024027
      48         -0.305834        2.000000        0.00350161        0.01178474        0.01766017        0.00854239        0.00114703        0.00195181        0.00088487        0.00053273        0.00056882
      49         -0.300456        2.000000        0.00112001        0.05801587        0.04756275        0.05534489        0.00108095        0.00071764        0.00079408        0.00017590        0.00022396
      50         -0.299645        2.000000        0.00075126        0.03542044        0.05819534        0.09096497        0.00026274        0.00033428        0.00204900        0.00006775        0.00011238
      51         -0.293219        2.000000        0.00096119        0.10510554        0.05179041        0.10088239        0.00016199        0.00004351        0.00125057        0.00129077        0.00054847
      52         -0.276670        2.000000        0.00677501        0.06493013        0.05109398        0.11004806        0.00007641        0.00150138        0.00084829        0.00082415        0.00506530
      53         -0.257665        2.000000        0.00868220        0.13975261        0.05464291        0.17536004        0.00003126        0.00136228        0.00036944        0.00056877        0.00410692
      54         -0.241693        2.000000        0.09338679        0.21661288        0.32715135        0.01261041        0.00225563        0.00008014        0.00054352        0.00048603        0.00016505
      55         -0.236109        2.000000        0.09054793        0.07345619        0.46921020        0.01090500        0.00278477        0.00010864        0.00035201        0.00049507        0.00000557
      56         -0.227936        2.000000        0.00029089        0.00309213        0.00031978        0.00234578        0.00000999        0.00000138        0.00001145        0.00000444        0.00000717
      57         -0.223278        2.000000        0.00411206        0.08484094        0.05326326        0.11332328        0.00007439        0.00006983        0.00027575        0.00015137        0.00030414
      58         -0.216374        2.000000        0.00069530        0.01194178        0.00857567        0.01349532        0.00002375        0.00008820        0.00011582        0.00005128        0.00027966
      59         -0.211077        2.000000        0.00206290        0.01868647        0.01542567        0.03331626        0.00005390        0.00001288        0.00007404        0.00007266        0.00023745
      60         -0.178987        2.000000        0.00809313        0.08537774        0.04374177        0.12116341        0.00035281        0.00201356        0.00178925        0.00165143        0.00837686
      61         -0.163299        2.000000        0.00574495        0.07404670        0.05117255        0.11208682        0.00037031        0.00168385        0.00201602        0.00168005        0.00586759
      62         -0.089219        0.000000        0.00102928        0.05533906        0.04296275        0.06944239        0.00027702        0.00138641        0.00142760        0.00123205        0.00329089
      63         -0.045329        0.000000        0.00107417        0.02042391        0.01536084        0.02378278        0.00054379        0.00292353        0.00209050        0.00171086        0.00905049
      64         -0.028682        0.000000        0.00059572        0.00207422        0.00214139        0.00419327        0.00044975        0.00019801        0.00102748        0.00023466        0.00065737
      65         -0.020475        0.000000        0.00056831        0.01295572        0.00543314        0.01114186        0.00012196        0.00144790        0.00090936        0.00111751        0.00457320
      66         -0.008140        0.000000        0.00263885        0.01474254        0.01865329        0.02356433        0.00103320        0.00362876        0.00747768        0.00421278        0.00816872
      67         -0.002957        0.000000        0.00498207        0.01281846        0.01201019        0.01361402        0.00029287        0.00073348        0.00320104        0.00171831        0.00169347
      68          0.001879        0.000000        0.00310818        0.03140691        0.01360450        0.03626273        0.00172932        0.00037911        0.00407150        0.00271027        0.00591107
      69          0.039014        0.000000        0.01319255        0.05005159        0.00980663        0.04286456        0.00742515        0.00314805        0.00070934        0.00128784        0.00679588
      70          0.047164        0.000000        0.16928589        0.00571865        0.01685520        0.05877546        0.00817033        0.00057912        0.00222396        0.00500641        0.00091738
      71          0.053740        0.000000        0.15609008        0.01984419        0.01965607        0.03654268        0.00639190        0.00116472        0.00249592        0.00488632        0.00236729
      72          0.055552        0.000000        0.03558709        0.02122888        0.03389333        0.02101929        0.00194927        0.00196271        0.00446457        0.00358094        0.00298488
      73          0.069711        0.000000        0.00468913        0.02284057        0.01163346        0.03441176        0.00236797        0.00337000        0.00541471        0.00094904        0.00835045
      74          0.085464        0.000000        0.01254241        0.00462359        0.03031040        0.00563050        0.00554337        0.00232157        0.00641377        0.00371492        0.00216911
      75          0.095441        0.000000        0.00845276        0.00373237        0.02347048        0.00885914        0.00075121        0.00019077        0.00286359        0.00427033        0.00116305
      76          0.097080        0.000000        0.01782641        0.02078351        0.01416507        0.01618163        0.00201121        0.00240691        0.00509140        0.00234406        0.00159331
      77          0.101027        0.000000        0.01230735        0.09171495        0.01194254        0.01075792        0.01723242        0.01165401        0.00294476        0.00053201        0.00550976
      78          0.112217        0.000000        0.04211113        0.00682841        0.00777625        0.00827319        0.00299998        0.00014820        0.00449925        0.00191304        0.00232570
      79          0.115813        0.000000        0.00366810        0.01459567        0.05139338        0.02572947        0.00656468        0.00311494        0.01097059        0.00361912        0.00159830
      80          0.118247        0.000000        0.01224612        0.00582747        0.01621714        0.01572865        0.00374954        0.00218078        0.00857778        0.00152053        0.00088981
      81          0.126791        0.000000        0.01967884        0.01709402        0.02006140        0.01264692        0.00237805        0.00118767        0.00581869        0.00380040        0.00410375
      82          0.132526        0.000000        0.00834258        0.01112785        0.01194390        0.01726137        0.00058274        0.00051844        0.00489032        0.00399187        0.00266614
      83          0.137627        0.000000        0.05812143        0.01411291        0.01249991        0.00548677        0.00355110        0.00212395        0.00149231        0.00295370        0.00160732
      84          0.145978        0.000000        0.02061660        0.06316372        0.00806069        0.01143927        0.01130520        0.00402503        0.00237154        0.00108709        0.00588014
      85          0.159965        0.000000        0.01037636        0.01637287        0.02331111        0.01143612        0.00146031        0.00189674        0.00731527        0.00231459        0.00691068
      86          0.168882        0.000000        0.00749896        0.01444022        0.00658318        0.00635587        0.01172913        0.00501832        0.00218546        0.00218859        0.00352744
      87          0.174758        0.000000        0.00679347        0.01317236        0.01519501        0.01193179        0.00706137        0.00248874        0.01015327        0.00409362        0.00497772
      88          0.178921        0.000000        0.02703519        0.00967118        0.00999276        0.02212650        0.00707827        0.00149101        0.00443603        0.00300782        0.00172383
      89          0.186761        0.000000        0.02266135        0.01911342        0.01759187        0.01031388        0.00483572        0.00502836        0.00691015        0.00546009        0.00182132
      90          0.188716        0.000000        0.00658025        0.00944281        0.03257876        0.01734574        0.00236523        0.00477243        0.00898096        0.00780599        0.00187096
      91          0.193319        0.000000        0.00833654        0.01659143        0.01825357        0.02626911        0.00456228        0.00348667        0.00485276        0.01224921        0.00407364
      92          0.196083        0.000000        0.00550958        0.01147230        0.03961398        0.01115335        0.00431483        0.00140886        0.00223841        0.00122912        0.00095375
      93          0.200768        0.000000        0.01013051        0.01385291        0.02061834        0.00289534        0.00067229        0.00208065        0.00295135        0.00018774        0.00115522
      94          0.217239        0.000000        0.01863389        0.01482284        0.03604630        0.00735324        0.00224472        0.00973595        0.00635863        0.00658372        0.00222190
      95          0.217905        0.000000        0.02501971        0.01694723        0.01861531        0.01673751        0.00200230        0.00387591        0.00724198        0.00455702        0.00226482
      96          0.223605        0.000000        0.01209292        0.01912565        0.02152563        0.01003712        0.00436946        0.01158396        0.00547324        0.00549636        0.00298082
      97          0.233070        0.000000        0.03130890        0.00271547        0.02783832        0.02104031        0.00304363        0.00347785        0.00078209        0.00116254        0.00346081
      98          0.240527        0.000000        0.01592996        0.01987942        0.00787573        0.02099335        0.00597415        0.00566811        0.00259310        0.00440221        0.00553711
      99          0.245365        0.000000        0.00613239        0.01388929        0.01092131        0.01859116        0.00246081        0.00379013        0.00184379        0.00687470        0.00240420
     100          0.252235        0.000000        0.00188000        0.03794551        0.02992470        0.02930770        0.00020868        0.00104235        0.00365595        0.00156737        0.00146906
     101          0.255892        0.000000        0.00367430        0.01289026        0.00855443        0.03908382        0.00643062        0.00119566        0.00270973        0.00235365        0.00085885
     102          0.269628        0.000000        0.00734110        0.06626104        0.03272317        0.09823501        0.00005953        0.00299687        0.00320574        0.00023643        0.00203361
     103          0.272820        0.000000        0.00258898        0.02413263        0.02050526        0.04688921        0.00565785        0.00259987        0.00183842        0.00034908        0.00104265
     104          0.274861        0.000000        0.00479538        0.06444407        0.03954081        0.04005814        0.00484259        0.01346760        0.00871157        0.01446125        0.01030033
     105          0.286179        0.000000        0.00899448        0.05745536        0.04275784        0.08315286        0.00179605        0.00746532        0.01643680        0.00658419        0.00477128
     106          0.290768        0.000000        0.00343622        0.02931496        0.05361197        0.02675146        0.00052760        0.02405553        0.02094074        0.01436281        0.00641698
     107          0.296722        0.000000        0.00568312        0.04342956        0.04901540        0.03517936        0.00020138        0.00703132        0.02131557        0.00970751        0.00799572
     108          0.308782        0.000000        0.03149488        0.01190084        0.04063469        0.01404789        0.01015997        0.00189680        0.00427945        0.00413105        0.00153705
     109          0.309500        0.000000        0.01586637        0.03507818        0.08696116        0.01422723        0.00625622        0.00913210        0.00175291        0.00071657        0.00330132
     110          0.321823        0.000000        0.02577001        0.04744870        0.07989454        0.00785016        0.00934222        0.00232090        0.01275793        0.00536394        0.00182874
     111          0.324838        0.000000        0.02730644        0.08193746        0.10893715        0.02014838        0.00151997        0.00862518        0.00844297        0.00220003        0.00385304
