# Projected DOS for atomic kind H at iteration step i = 0, E(Fermi) =    -0.160585 a.u.
#     MO Eigenvalue [a.u.]      Occupation                 s                py                pz                px
       1         -1.019999        2.000000        0.00301272        0.00132472        0.00220488        0.00055959
       2         -1.017509        2.000000        0.00368551        0.00113436        0.00328887        0.00044956
       3         -0.858136        2.000000        0.18874150        0.05927121        0.04053784        0.01371179
       4         -0.854841        2.000000        0.19634379        0.01339459        0.05750205        0.04455265
       5         -0.847157        2.000000        0.00510710        0.00117150        0.00247410        0.00141728
       6         -0.834707        2.000000        0.00572257        0.00276310        0.00147800        0.00116576
       7         -0.813359        2.000000        0.03446226        0.00704391        0.01103738        0.00644988
       8         -0.763259        2.000000        0.07083205        0.01979280        0.01189145        0.00686644
       9         -0.755215        2.000000        0.07295602        0.00903112        0.02112775        0.00951315
      10         -0.707174        2.000000        0.03863778        0.00650348        0.00786682        0.00519454
      11         -0.680127        2.000000        0.07500820        0.01130818        0.01013330        0.00865457
      12         -0.672623        2.000000        0.10761385        0.01015584        0.02138531        0.00670550
      13         -0.668840        2.000000        0.09548498        0.01511117        0.01162197        0.00681698
      14         -0.660127        2.000000        0.05505562        0.00813078        0.00489508        0.00670087
      15         -0.637230        2.000000        0.06472736        0.00869909        0.00645551        0.00660373
      16         -0.594151        2.000000        0.06029841        0.00575312        0.00640076        0.00300134
      17         -0.574825        2.000000        0.07448902        0.00469671        0.00656606        0.00441107
      18         -0.557077        2.000000        0.06638784        0.00672560        0.00348579        0.00757729
      19         -0.549658        2.000000        0.08259194        0.00745708        0.00732261        0.00371154
      20         -0.540222        2.000000        0.10646323        0.00400584        0.01080416        0.00095582
      21         -0.535945        2.000000        0.10043650        0.00718740        0.00579359        0.00448165
      22         -0.505022        2.000000        0.07210705        0.00818728        0.00337743        0.00622089
      23         -0.494649        2.000000        0.09521533        0.00299470        0.00696813        0.00211558
      24         -0.485065        2.000000        0.13249924        0.00370752        0.00895383        0.00413718
      25         -0.476557        2.000000        0.09482452        0.00409622        0.00408191        0.00511565
      26         -0.468601        2.000000        0.13359814        0.00536333        0.00255667        0.00745245
      27         -0.467580        2.000000        0.17154293        0.00342429        0.00465460        0.00430093
      28         -0.447447        2.000000        0.16507010        0.00222323        0.00536963        0.00074326
      29         -0.444489        2.000000        0.16434900        0.00283040        0.00701894        0.00293140
      30         -0.441763        2.000000        0.17167522        0.00562178        0.00621926        0.00256130
      31         -0.416120        2.000000        0.00445711        0.00108694        0.00105237        0.00077053
      32         -0.413283        2.000000        0.00156736        0.00078304        0.00051380        0.00135872
      33         -0.406788        2.000000        0.13620233        0.00220959        0.00203050        0.00414756
      34         -0.399841        2.000000        0.09987263        0.00286420        0.00228015        0.00498482
      35         -0.393231        2.000000        0.22884958        0.00183272        0.00251832        0.00083677
      36         -0.384713        2.000000        0.25928460        0.00195782        0.00133499        0.00074890
      37         -0.378474        2.000000        0.06409187        0.00228143        0.00236261        0.00278618
      38         -0.364965        2.000000        0.07614186        0.00444414        0.00540325        0.00365482
      39         -0.360043        2.000000        0.10675272        0.00329982        0.00364742        0.00179170
      40         -0.353121        2.000000        0.03235387        0.00398064        0.00548950        0.00641701
      41         -0.349789        2.000000        0.09582767        0.00282144        0.00208766        0.00255663
      42         -0.347749        2.000000        0.10269189        0.00337345        0.00161151        0.00536039
      43         -0.342056        2.000000        0.06596302        0.00476888        0.00234195        0.01240497
      44         -0.338534        2.000000        0.06139982        0.00293034        0.00153103        0.01194535
      45         -0.335208        2.000000        0.09292518        0.00689697        0.00189019        0.00346253
      46         -0.328262        2.000000        0.02410792        0.01947853        0.00308972        0.00973309
      47         -0.309626        2.000000        0.13033335        0.00056421        0.00046299        0.00090675
      48         -0.301649        2.000000        0.13052775        0.00051200        0.00099097        0.00243770
      49         -0.296514        2.000000        0.00962531        0.00302112        0.00081758        0.00276431
      50         -0.295234        2.000000        0.11096791        0.00128070        0.00036927        0.00064309
      51         -0.292233        2.000000        0.00144707        0.00250373        0.00256061        0.00551700
      52         -0.277083        2.000000        0.00152391        0.01075121        0.00437908        0.01564980
      53         -0.257692        2.000000        0.00161283        0.01361475        0.00544158        0.01900988
      54         -0.241602        2.000000        0.01505790        0.00180318        0.00061203        0.00067323
      55         -0.239762        2.000000        0.01568384        0.00084753        0.00029319        0.00171004
      56         -0.224275        2.000000        0.00079375        0.00875469        0.00938483        0.00800461
      57         -0.220676        2.000000        0.00135130        0.01003276        0.00606023        0.01620919
      58         -0.209657        2.000000        0.00045252        0.01502770        0.00428283        0.01965269
      59         -0.206630        2.000000        0.00115788        0.00933576        0.00863827        0.01782463
      60         -0.176549        2.000000        0.00307996        0.01313473        0.00682216        0.02390107
      61         -0.160585        2.000000        0.00252442        0.01033471        0.00630533        0.01864071
      62         -0.088342        0.000000        0.00093694        0.00697072        0.00465563        0.00768630
      63         -0.046500        0.000000        0.00222016        0.01499150        0.00990753        0.02084578
      64         -0.027907        0.000000        0.00320136        0.01953151        0.00904570        0.03066692
      65         -0.020975        0.000000        0.00299782        0.01344699        0.00937094        0.02474043
      66         -0.003811        0.000000        0.01809622        0.00416287        0.00457766        0.00654128
      67         -0.002735        0.000000        0.00800008        0.01144931        0.00957771        0.01917294
      68          0.003843        0.000000        0.00943953        0.01244835        0.01639846        0.01819687
      69          0.040328        0.000000        0.04534700        0.01344370        0.01803531        0.02180998
      70          0.048082        0.000000        0.24971001        0.05675886        0.07664013        0.12426651
      71          0.051530        0.000000        0.12015484        0.05154134        0.03077795        0.02335081
      72          0.051926        0.000000        0.16126540        0.07410166        0.07022962        0.02404773
      73          0.064756        0.000000        0.02108263        0.01388304        0.01323653        0.02335022
      74          0.084857        0.000000        0.10677740        0.07434869        0.07421887        0.01691952
      75          0.092773        0.000000        0.13119831        0.07088252        0.08323083        0.04028971
      76          0.098941        0.000000        0.18713222        0.12917819        0.09884303        0.05189959
      77          0.108081        0.000000        0.12242076        0.05548291        0.09149377        0.04239415
      78          0.109517        0.000000        0.14539942        0.04051658        0.11194617        0.05242738
      79          0.111607        0.000000        0.13327795        0.04372553        0.10375644        0.03574404
      80          0.120156        0.000000        0.05062821        0.03027576        0.03028502        0.03136920
      81          0.124547        0.000000        0.03613885        0.03668192        0.01449105        0.04187301
      82          0.135257        0.000000        0.05454191        0.03050104        0.02671181        0.05001091
      83          0.141256        0.000000        0.04857072        0.03595657        0.02183219        0.06467731
      84          0.152314        0.000000        0.21814471        0.15217268        0.10794760        0.02317659
      85          0.160349        0.000000        0.16507679        0.03883475        0.17957162        0.05086605
      86          0.168502        0.000000        0.15292196        0.05922260        0.07158008        0.08464795
      87          0.171618        0.000000        0.11637810        0.06608207        0.07836897        0.06379648
      88          0.177155        0.000000        0.06994609        0.03044668        0.03278987        0.01863748
      89          0.186800        0.000000        0.07373299        0.03794117        0.05645606        0.03385637
      90          0.188782        0.000000        0.03444280        0.02429225        0.02431122        0.01734372
      91          0.191787        0.000000        0.03616820        0.06288089        0.07820721        0.02162271
      92          0.196023        0.000000        0.04359084        0.02711332        0.09551987        0.03025055
      93          0.207042        0.000000        0.07239419        0.06750554        0.03177919        0.04432902
      94          0.208248        0.000000        0.06349635        0.05941899        0.02459417        0.07068214
      95          0.217872        0.000000        0.08419525        0.04838290        0.07100465        0.01630638
      96          0.226774        0.000000        0.07254130        0.02584702        0.04357211        0.02912570
      97          0.229259        0.000000        0.07804648        0.02566892        0.08594734        0.01824863
      98          0.232801        0.000000        0.04744236        0.04163570        0.05681987        0.04486175
      99          0.244265        0.000000        0.04213717        0.03185770        0.05596433        0.03518885
     100          0.255226        0.000000        0.05054783        0.05644516        0.01861781        0.04994355
     101          0.258647        0.000000        0.02360577        0.01896121        0.01828873        0.03781679
     102          0.267489        0.000000        0.04635242        0.08555037        0.05430830        0.03280864
     103          0.273362        0.000000        0.01502489        0.04269616        0.01617578        0.06614726
     104          0.276620        0.000000        0.03842467        0.03106141        0.01442368        0.02446044
     105          0.283351        0.000000        0.07682443        0.07349954        0.04860978        0.03931109
     106          0.286068        0.000000        0.07196755        0.04390385        0.06752494        0.03664192
     107          0.295828        0.000000        0.04454698        0.02595165        0.04590137        0.06300642
     108          0.308400        0.000000        0.09469574        0.04984708        0.03143858        0.01218555
     109          0.310582        0.000000        0.09532353        0.02058974        0.08423583        0.00519076
     110          0.314193        0.000000        0.04724479        0.03789268        0.04669428        0.01926026
     111          0.324018        0.000000        0.04865753        0.03977343        0.04523747        0.02072778
