# Projected DOS for atomic kind S at iteration step i = 0, E(Fermi) =    -0.160785 a.u.
#     MO Eigenvalue [a.u.]      Occupation                 s                py                pz                px               d-2               d-1                d0               d+1               d+2
       1         -1.040394        2.000000        0.00225402        0.00343685        0.00003172        0.00352175        0.00021977        0.00002583        0.00004876        0.00000150        0.00000444
       2         -1.024279        2.000000        0.00139019        0.00103364        0.00061286        0.00274993        0.00003769        0.00000646        0.00000000        0.00009327        0.00002382
       3         -0.848321        2.000000        0.00055259        0.00026407        0.00038846        0.00000827        0.00000006        0.00002316        0.00000153        0.00000627        0.00001594
       4         -0.835462        2.000000        0.00124431        0.00016468        0.00039873        0.00002193        0.00001464        0.00001452        0.00000027        0.00000740        0.00000156
       5         -0.835031        2.000000        0.00100842        0.00000396        0.00044757        0.00018725        0.00000064        0.00000045        0.00000608        0.00002824        0.00000128
       6         -0.828327        2.000000        0.00326231        0.00011419        0.00101834        0.00025161        0.00002070        0.00001354        0.00000576        0.00006649        0.00000049
       7         -0.812519        2.000000        0.14277889        0.01094470        0.02693494        0.00197287        0.00101184        0.00164726        0.00012742        0.00127748        0.00007078
       8         -0.766274        2.000000        0.00002186        0.00301811        0.00038002        0.00449256        0.00004880        0.00014975        0.00006978        0.00037244        0.00018359
       9         -0.760657        2.000000        0.00616659        0.00006558        0.00139090        0.00073779        0.00003423        0.00010612        0.00013642        0.00012806        0.00000057
      10         -0.708314        2.000000        0.00001860        0.02063337        0.00198495        0.02854986        0.00039890        0.00131453        0.00055349        0.00300856        0.00164254
      11         -0.692289        2.000000        0.03152123        0.00051922        0.00179855        0.00037699        0.00103117        0.00021653        0.00055562        0.00000032        0.00002639
      12         -0.679329        2.000000        0.01400833        0.00290388        0.00027911        0.00230697        0.00000377        0.00035487        0.00001236        0.00060665        0.00034772
      13         -0.673894        2.000000        0.08471222        0.00134493        0.00192183        0.00019540        0.00038114        0.00016105        0.00014231        0.00004629        0.00003726
      14         -0.658573        2.000000        0.08053186        0.00064289        0.00211198        0.00024945        0.00002570        0.00012566        0.00003904        0.00000003        0.00004956
      15         -0.635413        2.000000        0.00021857        0.00596063        0.00041560        0.00673866        0.00010919        0.00079816        0.00020992        0.00156153        0.00099925
      16         -0.595245        2.000000        0.04216927        0.00040169        0.00171754        0.00019415        0.00096992        0.00025588        0.00044462        0.00000776        0.00008788
      17         -0.581021        2.000000        0.00005627        0.00111735        0.00017354        0.00276552        0.00000005        0.00001727        0.00000659        0.00002906        0.00003950
      18         -0.557382        2.000000        0.00012943        0.00006127        0.00051528        0.00016131        0.00001661        0.00002179        0.00001776        0.00001043        0.00000403
      19         -0.551394        2.000000        0.00050844        0.00111821        0.00020590        0.00057889        0.00002288        0.00009531        0.00002871        0.00021371        0.00015667
      20         -0.544009        2.000000        0.00484911        0.00010093        0.00149639        0.00086523        0.00005651        0.00005399        0.00000444        0.00005385        0.00004395
      21         -0.535223        2.000000        0.00072044        0.00043667        0.00015021        0.00085119        0.00000278        0.00001685        0.00000127        0.00005537        0.00000929
      22         -0.501634        2.000000        0.02481797        0.00026672        0.01140371        0.00729885        0.00000010        0.00000039        0.00016472        0.00064055        0.00008667
      23         -0.493475        2.000000        0.00157880        0.02485821        0.00108013        0.02835154        0.00040681        0.00082518        0.00038192        0.00158535        0.00099153
      24         -0.479419        2.000000        0.00620923        0.01014751        0.00723950        0.00017724        0.00033954        0.00120565        0.00035098        0.00006079        0.00042418
      25         -0.471359        2.000000        0.01814827        0.00286594        0.00990200        0.00115839        0.00002543        0.00026754        0.00024318        0.00051214        0.00000362
      26         -0.465160        2.000000        0.03911843        0.02181190        0.01646721        0.00047539        0.00001602        0.00259111        0.00010062        0.00001224        0.00054229
      27         -0.463393        2.000000        0.00608967        0.00879329        0.00674974        0.02107356        0.00009602        0.00047153        0.00049814        0.00293318        0.00133774
      28         -0.450872        2.000000        0.00251157        0.00134736        0.00049579        0.00015211        0.00012142        0.00021690        0.00018346        0.00015433        0.00000003
      29         -0.449063        2.000000        0.00018679        0.00269169        0.00032435        0.00364127        0.00010465        0.00000347        0.00009852        0.00004366        0.00003619
      30         -0.443015        2.000000        0.00094359        0.00100628        0.00070326        0.00003570        0.00051830        0.00033490        0.00029470        0.00000705        0.00008841
      31         -0.427798        2.000000        0.00001055        0.00248182        0.00236716        0.00383818        0.00005256        0.00004630        0.00011065        0.00019477        0.00034418
      32         -0.416468        2.000000        0.00066309        0.00210923        0.00300575        0.00049750        0.00012697        0.00011466        0.00022862        0.00002000        0.00015766
      33         -0.405617        2.000000        0.00005536        0.01926756        0.00105143        0.01541792        0.00024613        0.00153109        0.00054944        0.00281654        0.00218291
      34         -0.399690        2.000000        0.00301167        0.00001660        0.00011844        0.00043004        0.00016668        0.00000374        0.00001522        0.00031568        0.00011965
      35         -0.397237        2.000000        0.00029153        0.00013094        0.00004113        0.00014313        0.00002039        0.00009628        0.00000441        0.00017994        0.00005206
      36         -0.389591        2.000000        0.00000578        0.00438335        0.00143665        0.00511180        0.00001600        0.00010440        0.00009078        0.00012099        0.00012268
      37         -0.375598        2.000000        0.00032430        0.01868383        0.00739474        0.02747515        0.00000280        0.00026200        0.00011403        0.00020407        0.00037152
      38         -0.371378        2.000000        0.00189375        0.00037739        0.00942346        0.00046021        0.00043225        0.00013344        0.00007417        0.00000021        0.00000000
      39         -0.362759        2.000000        0.00549879        0.00791329        0.00042919        0.00124503        0.00224883        0.00004298        0.00168695        0.00036813        0.00026518
      40         -0.358853        2.000000        0.00192669        0.01847185        0.00769365        0.00149745        0.00067593        0.00108336        0.00035109        0.00070228        0.00164617
      41         -0.351144        2.000000        0.00133147        0.01328114        0.04655500        0.00721285        0.00044634        0.00000191        0.00174029        0.00050604        0.00000034
      42         -0.348465        2.000000        0.00035335        0.02527578        0.00455540        0.01439489        0.00015153        0.00001693        0.00135550        0.00034536        0.00001247
      43         -0.344621        2.000000        0.00257409        0.00083729        0.00864595        0.01245215        0.00005178        0.00000023        0.00000948        0.00023235        0.00001409
      44         -0.333486        2.000000        0.00049033        0.00524960        0.00025990        0.04544748        0.00006849        0.00031163        0.00003765        0.00142113        0.00000935
      45         -0.332407        2.000000        0.00000645        0.01206658        0.00036985        0.08124381        0.00044235        0.00000450        0.00011496        0.00070116        0.00052087
      46         -0.326131        2.000000        0.00030124        0.01736388        0.01426023        0.00324824        0.00027986        0.00025901        0.00114723        0.00000918        0.00009468
      47         -0.314747        2.000000        0.02118909        0.06987346        0.11202892        0.00325895        0.00059196        0.00014483        0.00003352        0.00003304        0.00032631
      48         -0.307738        2.000000        0.00047973        0.00144922        0.00132894        0.00794197        0.00004156        0.00037756        0.00000280        0.00148930        0.00051479
      49         -0.300100        2.000000        0.04115527        0.08259145        0.13052490        0.03073290        0.00209085        0.00005537        0.00021663        0.00140828        0.00010011
      50         -0.297469        2.000000        0.01029548        0.01048237        0.04783967        0.00052679        0.00051438        0.00002312        0.00002291        0.00057374        0.00000506
      51         -0.290817        2.000000        0.00198885        0.00043197        0.01495247        0.00031429        0.00017776        0.00011631        0.00001830        0.00000008        0.00011447
      52         -0.273773        2.000000        0.00008874        0.00045555        0.00017640        0.00157739        0.00001496        0.00103459        0.00011537        0.00020991        0.00345543
      53         -0.255774        2.000000        0.00006630        0.00393275        0.00367545        0.00463415        0.00000494        0.00000683        0.00008987        0.00005698        0.00004090
      54         -0.248162        2.000000        0.00031441        0.00037780        0.00036200        0.00015026        0.00003207        0.00008532        0.00000001        0.00011911        0.00002853
      55         -0.235346        2.000000        0.00012349        0.00013026        0.00002859        0.00115844        0.00005327        0.00000406        0.00002828        0.00002683        0.00003340
      56         -0.229878        2.000000        0.00001049        0.12560447        0.12995636        0.16102366        0.00001867        0.00000014        0.00010017        0.00001918        0.00010548
      57         -0.222328        2.000000        0.00005302        0.00709401        0.00773970        0.00938837        0.00003382        0.00055227        0.00004562        0.00020122        0.00174555
      58         -0.216360        2.000000        0.00001000        0.01296121        0.01031325        0.01565902        0.00000273        0.00099345        0.00009405        0.00032717        0.00227962
      59         -0.209434        2.000000        0.00005922        0.00303019        0.00463178        0.00441121        0.00000101        0.00136813        0.00006494        0.00044514        0.00320355
      60         -0.177013        2.000000        0.00001804        0.00790957        0.00760355        0.00838754        0.00004861        0.00001394        0.00010677        0.00002592        0.00000126
      61         -0.160785        2.000000        0.00004346        0.00004151        0.00005680        0.00023464        0.00000308        0.00118699        0.00008062        0.00037823        0.00283552
      62         -0.090851        0.000000        0.00000582        0.03929846        0.03258173        0.04752342        0.00221523        0.00053171        0.00802686        0.00231178        0.00003135
      63         -0.043456        0.000000        0.00001320        0.00006532        0.00001387        0.00028737        0.00005090        0.00002126        0.00000307        0.00011292        0.00001080
      64         -0.029220        0.000000        0.00008042        0.00359561        0.00162189        0.00375072        0.00038482        0.00029735        0.00308481        0.00058469        0.00004301
      65         -0.017586        0.000000        0.00000904        0.00023716        0.00018890        0.00043720        0.00008031        0.00005784        0.00010757        0.00005990        0.00009646
      66         -0.007505        0.000000        0.00017358        0.00009011        0.00079717        0.02236078        0.00134686        0.00079605        0.00085208        0.00745515        0.00137222
      67         -0.002136        0.000000        0.00033638        0.05550991        0.00235898        0.06866060        0.00635230        0.01318124        0.00483508        0.03092753        0.04019372
      68          0.000363        0.000000        0.00082384        0.08597057        0.00465495        0.07761935        0.00515537        0.03704829        0.01144930        0.05149038        0.02211006
      69          0.037700        0.000000        0.02683007        0.02967704        0.00290774        0.01621528        0.00156293        0.00939653        0.01849463        0.01015033        0.00017893
      70          0.044676        0.000000        0.00039247        0.00002340        0.00176878        0.00036489        0.00073995        0.00002353        0.00006795        0.00038259        0.00088519
      71          0.047055        0.000000        0.00278277        0.00104898        0.00041340        0.00237002        0.00000439        0.00015008        0.00076004        0.00227390        0.00001396
      72          0.057391        0.000000        0.05399623        0.00348820        0.08098075        0.00205600        0.04133818        0.00405546        0.00994583        0.00825660        0.00440800
      73          0.068750        0.000000        0.01090162        0.00125423        0.00369879        0.00077935        0.00255202        0.00955032        0.00101758        0.01024089        0.02706873
      74          0.086588        0.000000        0.00068086        0.00879975        0.00481933        0.00450684        0.00260602        0.00159115        0.00000223        0.00162992        0.00086336
      75          0.093989        0.000000        0.00160857        0.00467925        0.00389942        0.00085865        0.00275142        0.00241887        0.00003666        0.00028964        0.00080613
      76          0.094825        0.000000        0.00696577        0.00287957        0.00695081        0.00106794        0.00262775        0.00184167        0.00031520        0.00263593        0.00005962
      77          0.110917        0.000000        0.00006033        0.00614236        0.00019444        0.00778772        0.00031567        0.00004632        0.00011967        0.00000956        0.00105996
      78          0.113034        0.000000        0.00090685        0.00065864        0.00332319        0.00181693        0.00001742        0.00078735        0.00048161        0.00174707        0.00006023
      79          0.117496        0.000000        0.00157618        0.00039424        0.00337702        0.00684863        0.00660121        0.00001250        0.00026001        0.00610615        0.00000515
      80          0.125647        0.000000        0.00139636        0.00916390        0.01994845        0.00305852        0.00068711        0.02587555        0.00827429        0.00725208        0.00529337
      81          0.128758        0.000000        0.00226617        0.00021851        0.00316990        0.00185181        0.01802614        0.00084270        0.00743724        0.00068642        0.00008589
      82          0.133073        0.000000        0.00035884        0.00394461        0.00820287        0.00118915        0.00331761        0.00326627        0.00050347        0.00480634        0.00152168
      83          0.141938        0.000000        0.00176009        0.00140928        0.00184505        0.00218256        0.00261227        0.00001524        0.00090354        0.01049906        0.00038898
      84          0.154065        0.000000        0.00115866        0.00033611        0.00175529        0.00002392        0.00175475        0.00071455        0.00000066        0.00001800        0.00007898
      85          0.155265        0.000000        0.00242556        0.00143266        0.00225219        0.00012993        0.00018924        0.00127061        0.00020658        0.00005575        0.00021518
      86          0.173704        0.000000        0.01078848        0.00022152        0.00041554        0.00006770        0.00030041        0.00000033        0.00004501        0.00066253        0.00005363
      87          0.174135        0.000000        0.00007534        0.00081509        0.00671076        0.00087020        0.00024365        0.00368089        0.00136658        0.00316115        0.00000242
      88          0.178757        0.000000        0.01602747        0.00294026        0.00693355        0.00124890        0.02268172        0.00573080        0.00067929        0.01853831        0.00034102
      89          0.186736        0.000000        0.01139203        0.00068881        0.01120937        0.00427671        0.01965369        0.00388704        0.01016456        0.00001049        0.00167861
      90          0.191195        0.000000        0.00205970        0.00081228        0.00071112        0.00094149        0.00265023        0.00080292        0.00107838        0.00042024        0.00113094
      91          0.195023        0.000000        0.00069671        0.00996062        0.01438125        0.00211077        0.01395750        0.02136361        0.00973508        0.00138465        0.00574402
      92          0.198443        0.000000        0.00077995        0.00169158        0.00503684        0.00061339        0.00376424        0.01409034        0.01129499        0.00148445        0.00102262
      93          0.200276        0.000000        0.02688269        0.00170547        0.00740516        0.00071405        0.00005946        0.00531920        0.00170534        0.00100328        0.00053052
      94          0.213857        0.000000        0.00234123        0.00063425        0.00069751        0.00212923        0.00009559        0.00042961        0.00070744        0.00047906        0.00020948
      95          0.222093        0.000000        0.00219613        0.01692254        0.02816656        0.00347035        0.01982605        0.00999276        0.00939004        0.00035703        0.00210163
      96          0.222726        0.000000        0.01335049        0.00046461        0.00156592        0.00045809        0.00028106        0.00005231        0.00007642        0.00238376        0.00046800
      97          0.226385        0.000000        0.01800409        0.01016642        0.02607703        0.00162932        0.00665601        0.02640038        0.02093402        0.00403937        0.00280243
      98          0.239989        0.000000        0.03148171        0.00111283        0.00955459        0.00036294        0.00700700        0.00049571        0.00298755        0.00075532        0.00152155
      99          0.250589        0.000000        0.00862029        0.02969792        0.01263884        0.00696992        0.00634039        0.00018509        0.00020947        0.00694453        0.00047168
     100          0.253230        0.000000        0.00010342        0.04736916        0.03987409        0.04258568        0.00015248        0.00093982        0.00884496        0.00006316        0.00080607
     101          0.258978        0.000000        0.00063714        0.00195193        0.02726835        0.00229322        0.01521919        0.00053602        0.00019768        0.00761354        0.00180125
     102          0.270185        0.000000        0.00009590        0.00286028        0.00243096        0.00006789        0.00019427        0.00002035        0.00118706        0.00002967        0.00072121
     103          0.272739        0.000000        0.00037984        0.00996118        0.00228127        0.01319267        0.00000010        0.00046269        0.00003341        0.00124721        0.00001587
     104          0.277865        0.000000        0.00028866        0.00026874        0.00698020        0.00441917        0.00285868        0.00032176        0.00280331        0.00237897        0.00033781
     105          0.286547        0.000000        0.00305445        0.00054098        0.00084457        0.00115037        0.00164817        0.00296251        0.00072073        0.00102029        0.00006918
     106          0.291596        0.000000        0.00143733        0.01422312        0.02278689        0.03146717        0.00379773        0.00008395        0.00526806        0.00856928        0.00000000
     107          0.297932        0.000000        0.00106450        0.04574460        0.01453011        0.01173133        0.00071162        0.00136976        0.00631394        0.00026724        0.00058869
     108          0.307241        0.000000        0.00137259        0.02931938        0.01666771        0.00426598        0.00003273        0.00024563        0.00000798        0.00331699        0.00091895
     109          0.316538        0.000000        0.00029516        0.00400810        0.00204109        0.01769735        0.00005047        0.00945604        0.00326823        0.00999866        0.00158426
     110          0.319486        0.000000        0.00183803        0.01220914        0.00182648        0.00029695        0.00145295        0.01890964        0.00873632        0.00920226        0.00017802
     111          0.321814        0.000000        0.00947801        0.00429024        0.00241418        0.00487667        0.00987282        0.00018853        0.00162587        0.00183335        0.00984214
