[Molden Format]
[N_Atoms]
                     8
[Atoms] (AU)
C1          1      6           0.00565406      1.35210471      0.00000000
C2          2      6           2.29069766      2.44853326      0.00000000
C3          3      6          -0.27479830     -1.40649481      0.00000000
O4          4      8          -2.30701167     -2.47681301      0.00000000
H5          5      1           3.99955432      1.32272892      0.00000000
H6          6      1           2.51245891      4.47776274      0.00000000
H7          7      1          -1.72073170      2.44471034      0.00000000
H8          8      1           1.49296679     -2.50027018      0.00000000
[5D]
[Charge] (Mulliken)
  0.333794120712265     
 -0.261396588154359     
  0.388117546284010     
 -0.565194943842592     
  2.649644843790866E-002
  3.672237979200232E-002
  3.615798575283447E-002
  5.303051017348404E-003
[GTO] (AU)
   1
   s  12
  0.155666900E+05  0.318987200E-03
  0.240549600E+04  0.195908130E-02
  0.525672900E+03  0.102385738E-01
  0.146496900E+03  0.405238695E-01
  0.479747500E+02  0.125883965E+00
  0.173301400E+02  0.293311590E+00
  0.658396100E+01  0.436925717E+00
  0.253985700E+01  0.236231424E+00
  0.969732700E+00  0.793263420E-02
  0.359531100E+00  0.343924810E-02
  0.127442000E+00 -0.207546360E-02
  0.451740100E-01  0.541977000E-03
   s  12
  0.155666900E+05 -0.707180000E-04
  0.240549600E+04 -0.434298500E-03
  0.525672900E+03 -0.228478480E-02
  0.146496900E+03 -0.915458990E-02
  0.479747500E+02 -0.297361058E-01
  0.173301400E+02 -0.760753928E-01
  0.658396100E+01 -0.150935485E+00
  0.253985700E+01 -0.151521390E+00
  0.969732700E+00  0.186884932E+00
  0.359531100E+00  0.664602163E+00
  0.127442000E+00  0.315836466E+00
  0.451740100E-01 -0.738333640E-02
   s  12
  0.155666900E+05  0.795849000E-04
  0.240549600E+04  0.497636600E-03
  0.525672900E+03  0.254777800E-02
  0.146496900E+03  0.106702450E-01
  0.479747500E+02  0.332187925E-01
  0.173301400E+02  0.938422339E-01
  0.658396100E+01  0.176478825E+00
  0.253985700E+01  0.248775824E+00
  0.969732700E+00 -0.856718816E+00
  0.359531100E+00 -0.679884311E+00
  0.127442000E+00  0.124106931E+01
  0.451740100E-01  0.110425268E+00
   p   7
  0.347937700E+02  0.559102700E-02
  0.796239500E+01  0.375157776E-01
  0.237594400E+01  0.148013438E+00
  0.812938700E+00  0.368883299E+00
  0.288122300E+00  0.481370022E+00
  0.100297500E+00  0.194005055E+00
  0.349143000E-01 -0.141156477E-01
   p   7
  0.347937700E+02 -0.679732190E-02
  0.796239500E+01 -0.437073439E-01
  0.237594400E+01 -0.201332454E+00
  0.812938700E+00 -0.574816760E+00
  0.288122300E+00  0.106291003E+00
  0.100297500E+00  0.790177640E+00
  0.349143000E-01  0.842390253E-01
   d   3
  0.103157817E+01  0.397666641E+00
  0.464115960E+00  0.434002380E+00
  0.182186550E+00  0.331849779E+00
 
   2
   s  12
  0.155666900E+05  0.318987200E-03
  0.240549600E+04  0.195908130E-02
  0.525672900E+03  0.102385738E-01
  0.146496900E+03  0.405238695E-01
  0.479747500E+02  0.125883965E+00
  0.173301400E+02  0.293311590E+00
  0.658396100E+01  0.436925717E+00
  0.253985700E+01  0.236231424E+00
  0.969732700E+00  0.793263420E-02
  0.359531100E+00  0.343924810E-02
  0.127442000E+00 -0.207546360E-02
  0.451740100E-01  0.541977000E-03
   s  12
  0.155666900E+05 -0.707180000E-04
  0.240549600E+04 -0.434298500E-03
  0.525672900E+03 -0.228478480E-02
  0.146496900E+03 -0.915458990E-02
  0.479747500E+02 -0.297361058E-01
  0.173301400E+02 -0.760753928E-01
  0.658396100E+01 -0.150935485E+00
  0.253985700E+01 -0.151521390E+00
  0.969732700E+00  0.186884932E+00
  0.359531100E+00  0.664602163E+00
  0.127442000E+00  0.315836466E+00
  0.451740100E-01 -0.738333640E-02
   s  12
  0.155666900E+05  0.795849000E-04
  0.240549600E+04  0.497636600E-03
  0.525672900E+03  0.254777800E-02
  0.146496900E+03  0.106702450E-01
  0.479747500E+02  0.332187925E-01
  0.173301400E+02  0.938422339E-01
  0.658396100E+01  0.176478825E+00
  0.253985700E+01  0.248775824E+00
  0.969732700E+00 -0.856718816E+00
  0.359531100E+00 -0.679884311E+00
  0.127442000E+00  0.124106931E+01
  0.451740100E-01  0.110425268E+00
   p   7
  0.347937700E+02  0.559102700E-02
  0.796239500E+01  0.375157776E-01
  0.237594400E+01  0.148013438E+00
  0.812938700E+00  0.368883299E+00
  0.288122300E+00  0.481370022E+00
  0.100297500E+00  0.194005055E+00
  0.349143000E-01 -0.141156477E-01
   p   7
  0.347937700E+02 -0.679732190E-02
  0.796239500E+01 -0.437073439E-01
  0.237594400E+01 -0.201332454E+00
  0.812938700E+00 -0.574816760E+00
  0.288122300E+00  0.106291003E+00
  0.100297500E+00  0.790177640E+00
  0.349143000E-01  0.842390253E-01
   d   3
  0.103157817E+01  0.397666641E+00
  0.464115960E+00  0.434002380E+00
  0.182186550E+00  0.331849779E+00
 
   3
   s  12
  0.155666900E+05  0.318987200E-03
  0.240549600E+04  0.195908130E-02
  0.525672900E+03  0.102385738E-01
  0.146496900E+03  0.405238695E-01
  0.479747500E+02  0.125883965E+00
  0.173301400E+02  0.293311590E+00
  0.658396100E+01  0.436925717E+00
  0.253985700E+01  0.236231424E+00
  0.969732700E+00  0.793263420E-02
  0.359531100E+00  0.343924810E-02
  0.127442000E+00 -0.207546360E-02
  0.451740100E-01  0.541977000E-03
   s  12
  0.155666900E+05 -0.707180000E-04
  0.240549600E+04 -0.434298500E-03
  0.525672900E+03 -0.228478480E-02
  0.146496900E+03 -0.915458990E-02
  0.479747500E+02 -0.297361058E-01
  0.173301400E+02 -0.760753928E-01
  0.658396100E+01 -0.150935485E+00
  0.253985700E+01 -0.151521390E+00
  0.969732700E+00  0.186884932E+00
  0.359531100E+00  0.664602163E+00
  0.127442000E+00  0.315836466E+00
  0.451740100E-01 -0.738333640E-02
   s  12
  0.155666900E+05  0.795849000E-04
  0.240549600E+04  0.497636600E-03
  0.525672900E+03  0.254777800E-02
  0.146496900E+03  0.106702450E-01
  0.479747500E+02  0.332187925E-01
  0.173301400E+02  0.938422339E-01
  0.658396100E+01  0.176478825E+00
  0.253985700E+01  0.248775824E+00
  0.969732700E+00 -0.856718816E+00
  0.359531100E+00 -0.679884311E+00
  0.127442000E+00  0.124106931E+01
  0.451740100E-01  0.110425268E+00
   p   7
  0.347937700E+02  0.559102700E-02
  0.796239500E+01  0.375157776E-01
  0.237594400E+01  0.148013438E+00
  0.812938700E+00  0.368883299E+00
  0.288122300E+00  0.481370022E+00
  0.100297500E+00  0.194005055E+00
  0.349143000E-01 -0.141156477E-01
   p   7
  0.347937700E+02 -0.679732190E-02
  0.796239500E+01 -0.437073439E-01
  0.237594400E+01 -0.201332454E+00
  0.812938700E+00 -0.574816760E+00
  0.288122300E+00  0.106291003E+00
  0.100297500E+00  0.790177640E+00
  0.349143000E-01  0.842390253E-01
   d   3
  0.103157817E+01  0.397666641E+00
  0.464115960E+00  0.434002380E+00
  0.182186550E+00  0.331849779E+00
 
   4
   s  13
  0.600906300E+05  0.169208100E-03
  0.917864300E+04  0.889187900E-03
  0.195607500E+04  0.444853890E-02
  0.532335300E+03  0.179738557E-01
  0.172046500E+03  0.600476428E-01
  0.622819100E+02  0.162070750E+00
  0.241140200E+02  0.333928971E+00
  0.963524800E+01  0.409214095E+00
  0.386729700E+01  0.161879582E+00
  0.152812000E+01  0.220275360E-02
  0.585558300E+00  0.347040470E-02
  0.215041200E+00 -0.121429300E-02
  0.789720000E-01  0.553489600E-03
   s  13
  0.600906300E+05 -0.395897000E-04
  0.917864300E+04 -0.208483300E-03
  0.195607500E+04 -0.104309180E-02
  0.532335300E+03 -0.426368300E-02
  0.172046500E+03 -0.144962724E-01
  0.622819100E+02 -0.416420553E-01
  0.241140200E+02 -0.970746371E-01
  0.963524800E+01 -0.170022674E+00
  0.386729700E+01 -0.102031005E+00
  0.152812000E+01  0.291777760E+00
  0.585558300E+00  0.630291087E+00
  0.215041200E+00  0.238668057E+00
  0.789720000E-01  0.754064790E-02
   s  13
  0.600906300E+05  0.125071000E-04
  0.917864300E+04  0.635004000E-04
  0.195607500E+04  0.338290400E-03
  0.532335300E+03  0.126086550E-02
  0.172046500E+03  0.487391930E-02
  0.622819100E+02  0.117999479E-01
  0.241140200E+02  0.350558932E-01
  0.963524800E+01  0.431547110E-01
  0.386729700E+01  0.686575271E-01
  0.152812000E+01 -0.206993676E+00
  0.585558300E+00 -0.765718142E-01
  0.215041200E+00 -0.829233970E+00
  0.789720000E-01  0.156874121E+01
   p   8
  0.113111800E+03  0.254948460E-02
  0.264149100E+02  0.190898373E-01
  0.817643800E+01  0.827611559E-01
  0.292841600E+01  0.234871349E+00
  0.110453300E+01  0.416068871E+00
  0.412978500E+00  0.382721497E+00
  0.147796100E+00  0.104398278E+00
  0.528930500E-01 -0.150881880E-02
   p   8
  0.113111800E+03 -0.266307000E-02
  0.264149100E+02 -0.212035935E-01
  0.817643800E+01 -0.872809032E-01
  0.292841600E+01 -0.324183090E+00
  0.110453300E+01 -0.448852842E+00
  0.412978500E+00  0.393091427E+00
  0.147796100E+00  0.667509756E+00
  0.528930500E-01  0.238835115E-01
   d   4
  0.291881374E+01  0.218900898E+00
  0.147086227E+01  0.308460627E+00
  0.674666070E+00  0.496885557E+00
  0.271289320E+00  0.154397875E+00
 
   5
   s   7
  0.107204235E+03  0.795967200E-03
  0.160435124E+02  0.586925230E-02
  0.361654671E+01  0.321526568E-01
  0.935438040E+00  0.128502229E+00
  0.304771210E+00  0.275736250E+00
  0.106854240E+00  0.428165510E+00
  0.374636100E-01  0.298737870E+00
   s   7
  0.107204235E+03 -0.361608410E-02
  0.160435124E+02 -0.260767933E-01
  0.361654671E+01 -0.143851972E+00
  0.935438040E+00 -0.527932693E+00
  0.304771210E+00 -0.522914475E+00
  0.106854240E+00  0.459744659E+00
  0.374636100E-01  0.508421792E+00
   p   4
  0.193253233E+01  0.159384969E+00
  0.105320343E+01  0.996983007E-01
  0.506622080E+00  0.509026071E+00
  0.213382130E+00  0.363747026E+00
 
   6
   s   7
  0.107204235E+03  0.795967200E-03
  0.160435124E+02  0.586925230E-02
  0.361654671E+01  0.321526568E-01
  0.935438040E+00  0.128502229E+00
  0.304771210E+00  0.275736250E+00
  0.106854240E+00  0.428165510E+00
  0.374636100E-01  0.298737870E+00
   s   7
  0.107204235E+03 -0.361608410E-02
  0.160435124E+02 -0.260767933E-01
  0.361654671E+01 -0.143851972E+00
  0.935438040E+00 -0.527932693E+00
  0.304771210E+00 -0.522914475E+00
  0.106854240E+00  0.459744659E+00
  0.374636100E-01  0.508421792E+00
   p   4
  0.193253233E+01  0.159384969E+00
  0.105320343E+01  0.996983007E-01
  0.506622080E+00  0.509026071E+00
  0.213382130E+00  0.363747026E+00
 
   7
   s   7
  0.107204235E+03  0.795967200E-03
  0.160435124E+02  0.586925230E-02
  0.361654671E+01  0.321526568E-01
  0.935438040E+00  0.128502229E+00
  0.304771210E+00  0.275736250E+00
  0.106854240E+00  0.428165510E+00
  0.374636100E-01  0.298737870E+00
   s   7
  0.107204235E+03 -0.361608410E-02
  0.160435124E+02 -0.260767933E-01
  0.361654671E+01 -0.143851972E+00
  0.935438040E+00 -0.527932693E+00
  0.304771210E+00 -0.522914475E+00
  0.106854240E+00  0.459744659E+00
  0.374636100E-01  0.508421792E+00
   p   4
  0.193253233E+01  0.159384969E+00
  0.105320343E+01  0.996983007E-01
  0.506622080E+00  0.509026071E+00
  0.213382130E+00  0.363747026E+00
 
   8
   s   7
  0.107204235E+03  0.795967200E-03
  0.160435124E+02  0.586925230E-02
  0.361654671E+01  0.321526568E-01
  0.935438040E+00  0.128502229E+00
  0.304771210E+00  0.275736250E+00
  0.106854240E+00  0.428165510E+00
  0.374636100E-01  0.298737870E+00
   s   7
  0.107204235E+03 -0.361608410E-02
  0.160435124E+02 -0.260767933E-01
  0.361654671E+01 -0.143851972E+00
  0.935438040E+00 -0.527932693E+00
  0.304771210E+00 -0.522914475E+00
  0.106854240E+00  0.459744659E+00
  0.374636100E-01  0.508421792E+00
   p   4
  0.193253233E+01  0.159384969E+00
  0.105320343E+01  0.996983007E-01
  0.506622080E+00  0.509026071E+00
  0.213382130E+00  0.363747026E+00
 
[MO]
Sym=     1a  
Ene=   -20.5950
Spin= Alpha
Occup=    2.00000
   1         0.00001059
   2         0.00013486
   3         0.00012236
   4        -0.00051522
   5        -0.00070943
   6         0.00000000
   7        -0.00043083
   8        -0.00056282
   9        -0.00000000
  10        -0.00007121
  11        -0.00000000
  12         0.00000000
  13        -0.00006858
  14        -0.00006264
  15         0.00012290
  16         0.00065212
  17         0.00026906
  18        -0.00039315
  19         0.00001029
  20         0.00000000
  21        -0.00027200
  22         0.00004371
  23        -0.00000000
  24        -0.00002184
  25        -0.00000000
  26         0.00000000
  27         0.00003884
  28         0.00001485
  29        -0.00012383
  30        -0.00068548
  31        -0.00024412
  32         0.00046335
  33        -0.00034061
  34         0.00000000
  35         0.00024046
  36        -0.00032449
  37         0.00000000
  38         0.00025496
  39        -0.00000000
  40        -0.00000000
  41        -0.00014968
  42        -0.00029158
  43         1.00007608
  44         0.00119655
  45        -0.00041885
  46         0.00099884
  47         0.00057315
  48         0.00000000
  49        -0.00076079
  50        -0.00037361
  51        -0.00000000
  52        -0.00013978
  53         0.00000000
  54         0.00000000
  55         0.00009436
  56         0.00016518
  57         0.00020660
  58         0.00004422
  59         0.00000697
  60         0.00000638
  61         0.00000000
  62         0.00000916
  63         0.00004845
  64         0.00002004
  65         0.00000312
  66         0.00000000
  67        -0.00009198
  68         0.00005143
  69         0.00002457
  70         0.00005896
  71         0.00000000
  72        -0.00027566
  73        -0.00002124
  74        -0.00001296
  75         0.00004518
  76        -0.00000000
Sym=     2a  
Ene=   -11.3190
Spin= Alpha
Occup=    2.00000
   1         0.01359677
   2         0.00039153
   3         0.00010470
   4        -0.00085168
   5        -0.00119027
   6        -0.00000000
   7        -0.00062840
   8        -0.00061093
   9        -0.00000000
  10         0.00003163
  11         0.00000000
  12        -0.00000000
  13        -0.00039022
  14         0.00010370
  15         0.00014852
  16         0.00093813
  17         0.00033114
  18        -0.00046558
  19        -0.00021247
  20        -0.00000000
  21        -0.00028279
  22        -0.00007669
  23        -0.00000000
  24        -0.00002521
  25        -0.00000000
  26        -0.00000000
  27         0.00001875
  28         0.00010429
  29         0.99949892
  30         0.00109705
  31        -0.00158320
  32        -0.00038229
  33        -0.00062474
  34        -0.00000000
  35         0.00066492
  36        -0.00008753
  37         0.00000000
  38        -0.00029069
  39        -0.00000000
  40        -0.00000000
  41         0.00021041
  42         0.00035911
  43        -0.00025577
  44         0.00057606
  45         0.00031486
  46         0.00048007
  47         0.00030982
  48         0.00000000
  49        -0.00020770
  50        -0.00007275
  51        -0.00000000
  52        -0.00010884
  53         0.00000000
  54         0.00000000
  55         0.00014203
  56         0.00024691
  57         0.00001415
  58        -0.00002648
  59         0.00002447
  60         0.00002256
  61         0.00000000
  62         0.00018534
  63         0.00008276
  64        -0.00000298
  65         0.00000151
  66         0.00000000
  67        -0.00008288
  68        -0.00008406
  69         0.00007032
  70        -0.00000549
  71         0.00000000
  72         0.00062862
  73        -0.00030014
  74        -0.00030410
  75         0.00008920
  76         0.00000000
Sym=     3a  
Ene=   -11.2890
Spin= Alpha
Occup=    2.00000
   1         0.99922903
   2         0.00059064
   3        -0.00184643
   4        -0.00016203
   5         0.00009559
   6         0.00000000
   7        -0.00016719
   8         0.00010126
   9         0.00000000
  10        -0.00033668
  11         0.00000000
  12         0.00000000
  13         0.00012988
  14         0.00011144
  15         0.01852017
  16         0.00097397
  17         0.00034352
  18        -0.00087967
  19        -0.00037073
  20        -0.00000000
  21        -0.00030261
  22        -0.00010697
  23        -0.00000000
  24        -0.00000623
  25         0.00000000
  26        -0.00000000
  27         0.00028569
  28         0.00037582
  29        -0.01364230
  30         0.00080616
  31         0.00032045
  32         0.00012342
  33         0.00076994
  34         0.00000000
  35         0.00006868
  36         0.00031965
  37         0.00000000
  38         0.00005804
  39         0.00000000
  40        -0.00000000
  41        -0.00028386
  42         0.00010048
  43         0.00003072
  44         0.00010926
  45         0.00005787
  46         0.00003933
  47        -0.00002053
  48        -0.00000000
  49         0.00003624
  50         0.00000489
  51        -0.00000000
  52        -0.00000113
  53        -0.00000000
  54        -0.00000000
  55        -0.00002958
  56         0.00001761
  57         0.00029844
  58        -0.00004322
  59        -0.00011574
  60        -0.00002577
  61         0.00000000
  62         0.00012354
  63        -0.00007651
  64        -0.00008690
  65        -0.00004462
  66         0.00000000
  67         0.00075776
  68        -0.00022198
  69         0.00018766
  70        -0.00005077
  71         0.00000000
  72         0.00010629
  73        -0.00004003
  74        -0.00004009
  75         0.00004692
  76        -0.00000000
Sym=     4a  
Ene=   -11.2480
Spin= Alpha
Occup=    2.00000
   1        -0.01876783
   2         0.00031158
   3         0.00012473
   4         0.00077668
   5         0.00082948
   6         0.00000000
   7         0.00025334
   8         0.00046423
   9         0.00000000
  10         0.00005488
  11         0.00000000
  12        -0.00000000
  13         0.00030332
  14         0.00032489
  15         0.99941527
  16         0.00117967
  17        -0.00169067
  18         0.00010018
  19        -0.00001097
  20         0.00000000
  21         0.00030063
  22         0.00014822
  23        -0.00000000
  24        -0.00022828
  25         0.00000000
  26        -0.00000000
  27         0.00008074
  28         0.00014593
  29         0.00043964
  30         0.00076625
  31         0.00032690
  32         0.00016818
  33         0.00050008
  34        -0.00000000
  35         0.00014179
  36         0.00035914
  37        -0.00000000
  38        -0.00006843
  39         0.00000000
  40         0.00000000
  41        -0.00007616
  42         0.00008419
  43         0.00001384
  44         0.00010880
  45         0.00015838
  46        -0.00002121
  47        -0.00000817
  48        -0.00000000
  49         0.00000356
  50        -0.00003292
  51        -0.00000000
  52         0.00001145
  53        -0.00000000
  54        -0.00000000
  55        -0.00001490
  56        -0.00001551
  57         0.00078261
  58        -0.00022126
  59        -0.00018755
  60         0.00004270
  61        -0.00000000
  62         0.00069497
  63        -0.00025653
  64        -0.00008781
  65        -0.00017149
  66        -0.00000000
  67         0.00007954
  68        -0.00007541
  69         0.00008761
  70         0.00000625
  71        -0.00000000
  72        -0.00004241
  73        -0.00000101
  74        -0.00001294
  75        -0.00002159
  76         0.00000000
Sym=     5a  
Ene=    -1.4089
Spin= Alpha
Occup=    2.00000
   1        -0.00754587
   2         0.04066237
   3        -0.00869185
   4        -0.00743352
   5        -0.00666416
   6        -0.00000000
   7         0.00145681
   8         0.02041739
   9        -0.00000000
  10        -0.00140855
  11         0.00000000
  12         0.00000000
  13        -0.00271727
  14         0.00676765
  15        -0.00315283
  16        -0.00399915
  17        -0.00718309
  18         0.00836076
  19         0.00242403
  20         0.00000000
  21         0.01028676
  22         0.00627400
  23         0.00000000
  24         0.00082363
  25        -0.00000000
  26         0.00000000
  27        -0.00171367
  28         0.00127558
  29        -0.04543923
  30         0.27950904
  31        -0.02651508
  32        -0.14477657
  33        -0.05356246
  34         0.00000000
  35         0.05776998
  36         0.03972187
  37        -0.00000000
  38        -0.02328612
  39        -0.00000000
  40        -0.00000000
  41         0.01748107
  42         0.03134606
  43        -0.02301031
  44         0.74797083
  45         0.01891657
  46         0.14528181
  47         0.07626091
  48         0.00000001
  49        -0.01877586
  50        -0.01166843
  51         0.00000000
  52        -0.01066281
  53         0.00000000
  54         0.00000000
  55         0.01014574
  56         0.01518604
  57        -0.00668497
  58        -0.00384911
  59         0.00003267
  60         0.00042976
  61         0.00000000
  62        -0.00704008
  63        -0.00186901
  64        -0.00108731
  65         0.00051710
  66         0.00000000
  67         0.00363988
  68        -0.00666740
  69         0.00115151
  70        -0.00253134
  71        -0.00000000
  72         0.02701520
  73        -0.01997588
  74        -0.01072554
  75        -0.00149188
  76        -0.00000000
Sym=     6a  
Ene=    -1.0829
Spin= Alpha
Occup=    2.00000
   1        -0.05349757
   2         0.49107785
   3        -0.02152767
   4         0.10121798
   5        -0.01461629
   6         0.00000000
   7        -0.02294267
   8        -0.02107815
   9         0.00000000
  10        -0.02086519
  11         0.00000000
  12        -0.00000000
  13         0.00226586
  14         0.01376454
  15        -0.05032124
  16         0.37011432
  17        -0.02595892
  18        -0.11571685
  19        -0.05471331
  20        -0.00000000
  21         0.02304063
  22         0.02057646
  23        -0.00000000
  24        -0.01361943
  25        -0.00000000
  26        -0.00000000
  27         0.01131493
  28         0.01595610
  29        -0.02218000
  30         0.13908281
  31        -0.02204194
  32         0.07422959
  33         0.10976148
  34         0.00000000
  35        -0.00940660
  36        -0.03410136
  37         0.00000000
  38        -0.00212051
  39        -0.00000000
  40        -0.00000000
  41        -0.01695254
  42        -0.00294760
  43         0.00154661
  44        -0.15525561
  45        -0.00783403
  46         0.00824335
  47         0.02193930
  48         0.00000000
  49         0.00368381
  50         0.00231775
  51         0.00000000
  52        -0.00024854
  53         0.00000000
  54         0.00000000
  55        -0.00160875
  56         0.00269032
  57         0.09021274
  58        -0.05046741
  59        -0.01563120
  60         0.00509835
  61         0.00000000
  62         0.07089739
  63        -0.04797184
  64        -0.00535530
  65        -0.01357270
  66        -0.00000000
  67         0.10761453
  68        -0.06016297
  69         0.01816225
  70        -0.00672624
  71         0.00000000
  72         0.03628314
  73        -0.02708391
  74        -0.00479165
  75         0.00691993
  76         0.00000000
Sym=     7a  
Ene=    -0.8834
Spin= Alpha
Occup=    2.00000
   1        -0.00705061
   2         0.16700034
   3         0.00337177
   4        -0.11904781
   5        -0.18257038
   6         0.00000000
   7         0.05107332
   8         0.06782745
   9         0.00000000
  10        -0.00590774
  11        -0.00000000
  12        -0.00000000
  13        -0.02108321
  14        -0.00876301
  15         0.03033268
  16        -0.44479251
  17        -0.00773969
  18         0.02216142
  19        -0.02666862
  20        -0.00000000
  21         0.02585134
  22         0.02166588
  23        -0.00000000
  24         0.01441219
  25        -0.00000000
  26        -0.00000000
  27        -0.00548741
  28         0.00108702
  29        -0.03266479
  30         0.39507220
  31        -0.01490321
  32         0.12209919
  33         0.16844685
  34         0.00000002
  35         0.00498446
  36         0.01218211
  37         0.00000000
  38        -0.00749407
  39        -0.00000000
  40        -0.00000000
  41        -0.02153449
  42        -0.01655589
  43         0.00018680
  44        -0.28448956
  45         0.01439267
  46         0.14506308
  47         0.09561289
  48         0.00000005
  49         0.01695731
  50         0.00612998
  51         0.00000000
  52        -0.00521702
  53         0.00000000
  54         0.00000000
  55         0.00404541
  56         0.00910133
  57        -0.13172434
  58         0.06784324
  59         0.01213432
  60        -0.01097539
  61        -0.00000000
  62        -0.17655480
  63         0.08329716
  64         0.00045702
  65         0.02172901
  66        -0.00000000
  67         0.05310360
  68        -0.02821291
  69         0.00012014
  70        -0.01203616
  71         0.00000000
  72         0.13449334
  73        -0.07367944
  74        -0.01612807
  75         0.00904196
  76         0.00000000
Sym=     8a  
Ene=    -0.7862
Spin= Alpha
Occup=    2.00000
   1         0.01369083
   2        -0.36174707
   3        -0.01318105
   4         0.15449644
   5        -0.09163505
   6         0.00000001
   7        -0.05090396
   8         0.03798801
   9        -0.00000000
  10         0.01096843
  11        -0.00000000
  12        -0.00000000
  13        -0.00298866
  14         0.00469891
  15        -0.01049127
  16         0.22372526
  17         0.00543384
  18         0.14592395
  19        -0.02778115
  20        -0.00000000
  21        -0.03247979
  22        -0.00120771
  23        -0.00000000
  24        -0.00710713
  25        -0.00000000
  26        -0.00000000
  27        -0.01078630
  28        -0.00550177
  29        -0.02034143
  30         0.27705042
  31        -0.00975117
  32         0.19103090
  33        -0.13483577
  34         0.00000003
  35         0.00473177
  36         0.05799967
  37        -0.00000000
  38        -0.00601058
  39        -0.00000000
  40        -0.00000000
  41         0.00484821
  42        -0.00398974
  43        -0.00158252
  44        -0.17013845
  45         0.00880134
  46         0.20168756
  47         0.01217569
  48         0.00000006
  49         0.01241566
  50         0.00732259
  51         0.00000000
  52        -0.00466512
  53         0.00000000
  54         0.00000000
  55         0.01224483
  56         0.00339880
  57         0.16685887
  58        -0.08398846
  59        -0.01286975
  60         0.01048587
  61        -0.00000000
  62         0.06966611
  63        -0.03840261
  64         0.00374245
  65        -0.00755587
  66        -0.00000000
  67        -0.28100001
  68         0.12295387
  69        -0.02451692
  70         0.01454479
  71         0.00000000
  72         0.24323613
  73        -0.12271594
  74        -0.02334112
  75         0.00991447
  76         0.00000000
Sym=     9a  
Ene=    -0.6769
Spin= Alpha
Occup=    2.00000
   1         0.00199300
   2        -0.08344683
   3        -0.00618575
   4        -0.24425756
   5         0.14275402
   6         0.00000003
   7         0.00750726
   8         0.00004780
   9        -0.00000000
  10         0.00171261
  11        -0.00000000
  12        -0.00000000
  13        -0.00031657
  14         0.00339248
  15         0.00026167
  16         0.08461832
  17         0.00343154
  18         0.08647726
  19         0.25074074
  20        -0.00000000
  21        -0.00860199
  22        -0.03334910
  23        -0.00000000
  24        -0.00041815
  25        -0.00000000
  26        -0.00000000
  27        -0.01153257
  28        -0.00922160
  29        -0.02174098
  30         0.02534495
  31        -0.03886920
  32        -0.18690053
  33        -0.08235145
  34         0.00000013
  35         0.12381738
  36         0.06170422
  37        -0.00000000
  38         0.00077902
  39        -0.00000001
  40        -0.00000000
  41         0.00913165
  42         0.00389691
  43        -0.00644245
  44        -0.28608929
  45         0.02587046
  46         0.51642495
  47         0.29122607
  48         0.00000024
  49         0.03883007
  50         0.01828060
  51         0.00000002
  52        -0.01615017
  53         0.00000001
  54         0.00000001
  55         0.01465212
  56         0.02362009
  57        -0.04069602
  58         0.00363388
  59         0.00729617
  60         0.00608209
  61        -0.00000000
  62         0.20922680
  63        -0.09863314
  64        -0.00051639
  65        -0.01599631
  66         0.00000000
  67         0.11371622
  68        -0.07154492
  69         0.00808117
  70        -0.00587603
  71         0.00000000
  72        -0.11465156
  73         0.03147985
  74        -0.00391355
  75        -0.01711770
  76         0.00000000
Sym=    10a  
Ene=    -0.6514
Spin= Alpha
Occup=    2.00000
   1        -0.00711055
   2         0.02580489
   3        -0.00688243
   4         0.09394668
   5         0.36553153
   6         0.00000001
   7        -0.02294878
   8        -0.04192892
   9         0.00000000
  10        -0.00068224
  11         0.00000000
  12        -0.00000000
  13         0.01764651
  14        -0.00043141
  15         0.00055630
  16        -0.06814801
  17        -0.00400034
  18        -0.32596469
  19         0.07457501
  20         0.00000001
  21         0.05186694
  22        -0.01057188
  23         0.00000000
  24         0.00105412
  25        -0.00000000
  26        -0.00000000
  27         0.01299913
  28         0.01551953
  29         0.00160235
  30         0.00490557
  31         0.00326692
  32         0.19832614
  33        -0.35197080
  34         0.00000000
  35        -0.02096381
  36         0.05658773
  37         0.00000000
  38         0.00006242
  39        -0.00000000
  40         0.00000000
  41         0.01245980
  42        -0.00732938
  43        -0.00027331
  44        -0.00397891
  45        -0.01000835
  46         0.07688570
  47        -0.16436938
  48        -0.00000000
  49        -0.00099957
  50        -0.00191540
  51        -0.00000000
  52         0.00038177
  53         0.00000000
  54        -0.00000000
  55         0.01257216
  56        -0.00936628
  57        -0.27212646
  58         0.11324422
  59         0.01496779
  60        -0.01517146
  61         0.00000000
  62         0.01430492
  63         0.00423300
  64        -0.01066608