 DBCSR| CPU Multiplication driver                                            SMM
 DBCSR| Multrec recursion limit                                              512
 DBCSR| Multiplication stack size                                           1000
 DBCSR| Maximum elements for images                                    UNLIMITED
 DBCSR| Multiplicative factor virtual images                                   1
 DBCSR| Use multiplication densification                                       T
 DBCSR| Multiplication size stacks                                             3
 DBCSR| Use memory pool for CPU allocation                                     F
 DBCSR| Number of 3D layers                                               SINGLE
 DBCSR| Use MPI memory allocation                                              F
 DBCSR| Use RMA algorithm                                                      F
 DBCSR| Use Communication thread                                               T
 DBCSR| Communication thread load                                             87
 DBCSR| MPI: My node id                                                        0
 DBCSR| MPI: Number of nodes                                                  12
 DBCSR| OMP: Current number of threads                                         1
 DBCSR| OMP: Max number of threads                                             1
 DBCSR| Split modifier for TAS multiplication algorithm                  1.0E+00


  **** **** ******  **  PROGRAM STARTED AT               2022-07-19 08:09:35.892
 ***** ** ***  *** **   PROGRAM STARTED ON        cpn-p27-19.compute.cbls.ccr.bu
 **    ****   ******    PROGRAM STARTED BY                              ppandeya
 ***** **    ** ** **   PROGRAM PROCESS ID                                 29005
  **** **  *******  **  PROGRAM STARTED IN /projects/academic/cyberwksp21/Studen
                                           ts/ppandeya/project/LIBRA/step2/job4

 CP2K| version string:                   CP2K version 10.0 (Development Version)
 CP2K| source code revision number:                                  git:2a94081
 CP2K| cp2kflags: omp libint fftw3 libxc elpa parallel mpi3 scalapack cosma quip
 CP2K|             plumed2 spglib mkl libvori libbqb
 CP2K| is freely available from                            https://www.cp2k.org/
 CP2K| Program compiled at                          Wed Jun 22 10:37:49 EDT 2022
 CP2K| Program compiled on            cpn-k07-04-01.compute.cbls.ccr.buffalo.edu
 CP2K| Program compiled for                                                local
 CP2K| Data directory path    /projects/academic/cyberwksp21/Software/cp2k-gnu/c
 CP2K| Input file name                                       Diag_libra-1217.inp

 GLOBAL| Force Environment number                                              1
 GLOBAL| Basis set file name                                        BASIS_MOLOPT
 GLOBAL| Potential file name                                           POTENTIAL
 GLOBAL| MM Potential file name                                     MM_POTENTIAL
 GLOBAL| Coordinate file name                                     coord-1217.xyz
 GLOBAL| Method name                                                        CP2K
 GLOBAL| Project name                                            Diag_libra-1217
 GLOBAL| Run type                                                         ENERGY
 GLOBAL| FFT library                                                       FFTW3
 GLOBAL| Diagonalization library                                            ELPA
 GLOBAL| Minimum number of eigenvectors for ELPA usage                        16
 GLOBAL| Orthonormality check for eigenvectors                          DISABLED
 GLOBAL| Matrix multiplication library                                     COSMA
 GLOBAL| All-to-all communication in single precision                          F
 GLOBAL| FFTs using library dependent lengths                                  F
 GLOBAL| Grid backend                                                       AUTO
 GLOBAL| Global print level                                               MEDIUM
 GLOBAL| MPI I/O enabled                                                       T
 GLOBAL| Total number of message passing processes                            12
 GLOBAL| Number of threads for this process                                    1
 GLOBAL| This output is from process                                           0
 GLOBAL| Stack size for threads created by OpenMP (OMP_STACKSIZE)        default
 GLOBAL| CPU model name                Intel(R) Xeon(R) CPU E5-2620 v3 @ 2.40GHz

 MEMORY| system memory details [Kb]
 MEMORY|                        rank 0           min           max       average
 MEMORY| MemTotal            131633804     131633804     131633804     131633804
 MEMORY| MemFree              93381548      93381548      93381548      93381548
 MEMORY| Buffers                  1236          1236          1236          1236
 MEMORY| Cached               34391364      34391364      34391364      34391364
 MEMORY| Slab                   924408        924408        924408        924408
 MEMORY| SReclaimable           819364        819364        819364        819364
 MEMORY| MemLikelyFree       128593512     128593512     128593512     128593512


 *** Fundamental physical constants (SI units) ***

 *** Literature: B. J. Mohr and B. N. Taylor,
 ***             CODATA recommended values of the fundamental physical
 ***             constants: 2006, Web Version 5.1
 ***             http://physics.nist.gov/constants

 Speed of light in vacuum [m/s]                             2.99792458000000E+08
 Magnetic constant or permeability of vacuum [N/A**2]       1.25663706143592E-06
 Electric constant or permittivity of vacuum [F/m]          8.85418781762039E-12
 Planck constant (h) [J*s]                                  6.62606896000000E-34
 Planck constant (h-bar) [J*s]                              1.05457162825177E-34
 Elementary charge [C]                                      1.60217648700000E-19
 Electron mass [kg]                                         9.10938215000000E-31
 Electron g factor [ ]                                     -2.00231930436220E+00
 Proton mass [kg]                                           1.67262163700000E-27
 Fine-structure constant                                    7.29735253760000E-03
 Rydberg constant [1/m]                                     1.09737315685270E+07
 Avogadro constant [1/mol]                                  6.02214179000000E+23
 Boltzmann constant [J/K]                                   1.38065040000000E-23
 Atomic mass unit [kg]                                      1.66053878200000E-27
 Bohr radius [m]                                            5.29177208590000E-11

 *** Conversion factors ***

 [u] -> [a.u.]                                              1.82288848426455E+03
 [Angstrom] -> [Bohr] = [a.u.]                              1.88972613288564E+00
 [a.u.] = [Bohr] -> [Angstrom]                              5.29177208590000E-01
 [a.u.] -> [s]                                              2.41888432650478E-17
 [a.u.] -> [fs]                                             2.41888432650478E-02
 [a.u.] -> [J]                                              4.35974393937059E-18
 [a.u.] -> [N]                                              8.23872205491840E-08
 [a.u.] -> [K]                                              3.15774647902944E+05
 [a.u.] -> [kJ/mol]                                         2.62549961709828E+03
 [a.u.] -> [kcal/mol]                                       6.27509468713739E+02
 [a.u.] -> [Pa]                                             2.94210107994716E+13
 [a.u.] -> [bar]                                            2.94210107994716E+08
 [a.u.] -> [atm]                                            2.90362800883016E+08
 [a.u.] -> [eV]                                             2.72113838565563E+01
 [a.u.] -> [Hz]                                             6.57968392072181E+15
 [a.u.] -> [1/cm] (wave numbers)                            2.19474631370540E+05
 [a.u./Bohr**2] -> [1/cm]                                   5.14048714338585E+03
 

 CELL_TOP| Volume [angstrom^3]:                                      9316.198135
 CELL_TOP| Vector a [angstrom    21.042     0.000     0.000   |a| =    21.041639
 CELL_TOP| Vector b [angstrom     0.000    21.042     0.000   |b| =    21.041639
 CELL_TOP| Vector c [angstrom     0.000     0.000    21.042   |c| =    21.041639
 CELL_TOP| Angle (b,c), alpha [degree]:                                90.000000
 CELL_TOP| Angle (a,c), beta  [degree]:                                90.000000
 CELL_TOP| Angle (a,b), gamma [degree]:                                90.000000
 CELL_TOP| Numerically orthorhombic:                                         YES

 GENERATE|  Preliminary Number of Bonds generated:                             0
 GENERATE|  Achieved consistency in connectivity generation.

 CELL| Volume [angstrom^3]:                                          9316.198135
 CELL| Vector a [angstrom]:      21.042     0.000     0.000   |a| =    21.041639
 CELL| Vector b [angstrom]:       0.000    21.042     0.000   |b| =    21.041639
 CELL| Vector c [angstrom]:       0.000     0.000    21.042   |c| =    21.041639
 CELL| Angle (b,c), alpha [degree]:                                    90.000000
 CELL| Angle (a,c), beta  [degree]:                                    90.000000
 CELL| Angle (a,b), gamma [degree]:                                    90.000000
 CELL| Numerically orthorhombic:                                             YES

 CELL_REF| Volume [angstrom^3]:                                      9316.198135
 CELL_REF| Vector a [angstrom    21.042     0.000     0.000   |a| =    21.041639
 CELL_REF| Vector b [angstrom     0.000    21.042     0.000   |b| =    21.041639
 CELL_REF| Vector c [angstrom     0.000     0.000    21.042   |c| =    21.041639
 CELL_REF| Angle (b,c), alpha [degree]:                                90.000000
 CELL_REF| Angle (a,c), beta  [degree]:                                90.000000
 CELL_REF| Angle (a,b), gamma [degree]:                                90.000000
 CELL_REF| Numerically orthorhombic:                                         YES

 *******************************************************************************
 *******************************************************************************
 **                                                                           **
 **     #####                         ##              ##                      **
 **    ##   ##            ##          ##              ##                      **
 **   ##     ##                       ##            ######                    **
 **   ##     ##  ##   ##  ##   #####  ##  ##   ####   ##    #####    #####    **
 **   ##     ##  ##   ##  ##  ##      ## ##   ##      ##   ##   ##  ##   ##   **
 **   ##  ## ##  ##   ##  ##  ##      ####     ###    ##   ######   ######    **
 **    ##  ###   ##   ##  ##  ##      ## ##      ##   ##   ##       ##        **
 **     #######   #####   ##   #####  ##  ##  ####    ##    #####   ##        **
 **           ##                                                    ##        **
 **                                                                           **
 **                                                ... make the atoms dance   **
 **                                                                           **
 **            Copyright (C) by CP2K developers group (2000-2022)             **
 **                      J. Chem. Phys. 152, 194103 (2020)                    **
 **                                                                           **
 *******************************************************************************

 DFT| Spin restricted Kohn-Sham (RKS) calculation                            RKS
 DFT| Multiplicity                                                             1
 DFT| Number of spin states                                                    1
 DFT| Charge                                                                   0
 DFT| Self-interaction correction (SIC)                                       NO
 DFT| Cutoffs: density                                              1.000000E-10
 DFT|          gradient                                             1.000000E-10
 DFT|          tau                                                  1.000000E-10
 DFT|          cutoff_smoothing_range                               0.000000E+00
 DFT| XC density smoothing                                                  NONE
 DFT| XC derivatives                                                          PW
 FUNCTIONAL| PBE:
 FUNCTIONAL| J.P.Perdew, K.Burke, M.Ernzerhof, Phys. Rev. Letter, vol. 77, n 18,
 FUNCTIONAL|  pp. 3865-3868, (1996){spin unpolarized}                           
 vdW POTENTIAL|                                                   Pair Potential
 vdW POTENTIAL|          DFT-D3 (Version 3.1)
 vdW POTENTIAL|          Potential Form: S. Grimme et al, JCP 132: 154104 (2010)
 vdW POTENTIAL|          Zero Damping
 vdW POTENTIAL|          Cutoff Radius [Bohr]:                             30.24
 vdW POTENTIAL|          s6 Scaling Factor:                               1.0000
 vdW POTENTIAL|          sr6 Scaling Factor:                              1.2170
 vdW POTENTIAL|          s8 Scaling Factor:                               0.7220
 vdW POTENTIAL|          Cutoff for CN calculation:                   0.1000E-05

 QS| Method:                                                                 GPW
 QS| Density plane wave grid type                        NON-SPHERICAL FULLSPACE
 QS| Number of grid levels:                                                   16
 QS| Density cutoff [a.u.]:                                                250.0
 QS| Multi grid cutoff [a.u.]: 1) grid level                               250.0
 QS|                           2) grid level                                83.3
 QS|                           3) grid level                                27.8
 QS|                           4) grid level                                 9.3
 QS|                           5) grid level                                 3.1
 QS|                           6) grid level                                 1.0
 QS|                           7) grid level                                 0.3
 QS|                           8) grid level                                 0.1
 QS|                           9) grid level                                 0.0
 QS|                          10) grid level                                 0.0
 QS|                          11) grid level                                 0.0
 QS|                          12) grid level                                 0.0
 QS|                          13) grid level                                 0.0
 QS|                          14) grid level                                 0.0
 QS|                          15) grid level                                 0.0
 QS|                          16) grid level                                 0.0
 QS| Grid level progression factor:                                          3.0
 QS| Relative density cutoff [a.u.]:                                        25.0
 QS| Interaction thresholds: eps_pgf_orb:                                1.0E-07
 QS|                         eps_filter_matrix:                          0.0E+00
 QS|                         eps_core_charge:                            1.0E-16
 QS|                         eps_rho_gspace:                             1.0E-14
 QS|                         eps_rho_rspace:                             1.0E-14
 QS|                         eps_gvg_rspace:                             1.0E-07
 QS|                         eps_ppl:                                    1.0E-02
 QS|                         eps_ppnl:                                   1.0E-09


 ATOMIC KIND INFORMATION

  1. Atomic kind: C                                     Number of atoms:      18

     Orbital Basis Set                                           DZVP-MOLOPT-GTH

       Number of orbital shell sets:                                           1
       Number of orbital shells:                                               5
       Number of primitive Cartesian functions:                                7
       Number of Cartesian basis functions:                                   14
       Number of spherical basis functions:                                   13
       Norm type:                                                              2

       Normalised Cartesian orbitals:

                        Set   Shell   Orbital            Exponent    Coefficient

                          1       1    2s                6.132625      -0.263661
                                                         2.625196      -0.231112
                                                         1.045457       0.042712
                                                         0.478316       0.306085
                                                         0.178617       0.065483
                                                         0.075145       0.000568
                                                         0.030287       0.000417

                          1       2    3s                6.132625       0.131937
                                                         2.625196       0.414269
                                                         1.045457      -0.593590
                                                         0.478316       0.644922
                                                         0.178617       0.069203
                                                         0.075145      -0.145101
                                                         0.030287       0.008247

                          1       3    3px               6.132625       0.562677
                                                         2.625196       0.633910
                                                         1.045457       0.379157
                                                         0.478316       0.235193
                                                         0.178617       0.052379
                                                         0.075145       0.003677
                                                         0.030287       0.000105
                          1       3    3py               6.132625       0.562677
                                                         2.625196       0.633910
                                                         1.045457       0.379157
                                                         0.478316       0.235193
                                                         0.178617       0.052379
                                                         0.075145       0.003677
                                                         0.030287       0.000105
                          1       3    3pz               6.132625       0.562677
                                                         2.625196       0.633910
                                                         1.045457       0.379157
                                                         0.478316       0.235193
                                                         0.178617       0.052379
                                                         0.075145       0.003677
                                                         0.030287       0.000105

                          1       4    4px               6.132625      -0.472364
                                                         2.625196      -0.221326
                                                         1.045457      -0.481781
                                                         0.478316       0.135466
                                                         0.178617       0.072281
                                                         0.075145       0.024920
                                                         0.030287       0.002706
                          1       4    4py               6.132625      -0.472364
                                                         2.625196      -0.221326
                                                         1.045457      -0.481781
                                                         0.478316       0.135466
                                                         0.178617       0.072281
                                                         0.075145       0.024920
                                                         0.030287       0.002706
                          1       4    4pz               6.132625      -0.472364
                                                         2.625196      -0.221326
                                                         1.045457      -0.481781
                                                         0.478316       0.135466
                                                         0.178617       0.072281
                                                         0.075145       0.024920
                                                         0.030287       0.002706

                          1       5    4dx2              6.132625       0.874783
                                                         2.625196       0.375772
                                                         1.045457       0.653959
                                                         0.478316       0.191007
                                                         0.178617       0.018656
                                                         0.075145       0.003649
                                                         0.030287      -0.000011
                          1       5    4dxy              6.132625       1.515169
                                                         2.625196       0.650856
                                                         1.045457       1.132690
                                                         0.478316       0.330834
                                                         0.178617       0.032314
                                                         0.075145       0.006321
                                                         0.030287      -0.000019
                          1       5    4dxz              6.132625       1.515169
                                                         2.625196       0.650856
                                                         1.045457       1.132690
                                                         0.478316       0.330834
                                                         0.178617       0.032314
                                                         0.075145       0.006321
                                                         0.030287      -0.000019
                          1       5    4dy2              6.132625       0.874783
                                                         2.625196       0.375772
                                                         1.045457       0.653959
                                                         0.478316       0.191007
                                                         0.178617       0.018656
                                                         0.075145       0.003649
                                                         0.030287      -0.000011
                          1       5    4dyz              6.132625       1.515169
                                                         2.625196       0.650856
                                                         1.045457       1.132690
                                                         0.478316       0.330834
                                                         0.178617       0.032314
                                                         0.075145       0.006321
                                                         0.030287      -0.000019
                          1       5    4dz2              6.132625       0.874783
                                                         2.625196       0.375772
                                                         1.045457       0.653959
                                                         0.478316       0.191007
                                                         0.178617       0.018656
                                                         0.075145       0.003649
                                                         0.030287      -0.000011

       Atomic covalent radius [Angstrom]:                                  0.770

       Atomic van der Waals radius [Angstrom]:                             1.700

     GTH Potential information for                                    GTH-PBE-q4

       Description:                       Goedecker-Teter-Hutter pseudopotential
                                           Goedecker et al., PRB 54, 1703 (1996)
                                          Hartwigsen et al., PRB 58, 3641 (1998)
                                                      Krack, TCA 114, 145 (2005)

       Gaussian exponent of the core charge distribution:               4.364419
       Electronic configuration (s p d ...):                               2   2

       Parameters of the local part of the GTH pseudopotential:

                          rloc        C1          C2          C3          C4
                        0.338471   -8.803674    1.339211

       Parameters of the non-local part of the GTH pseudopotential:

                   l      r(l)      h(i,j,l)

                   0    0.302576    9.622487
                   1    0.291507

  2. Atomic kind: O                                     Number of atoms:       2

     Orbital Basis Set                                           DZVP-MOLOPT-GTH

       Number of orbital shell sets:                                           1
       Number of orbital shells:                                               5
       Number of primitive Cartesian functions:                                7
       Number of Cartesian basis functions:                                   14
       Number of spherical basis functions:                                   13
       Norm type:                                                              2

       Normalised Cartesian orbitals:

                        Set   Shell   Orbital            Exponent    Coefficient

                          1       1    2s               12.015955      -0.284499
                                                         5.108150      -0.322498
                                                         2.048398       0.148191
                                                         0.832382       0.295475
                                                         0.352316       0.150829
                                                         0.142977       0.015788
                                                         0.046761      -0.000019

                          1       2    3s               12.015955       0.725622
                                                         5.108150       0.644384
                                                         2.048398      -0.157350
                                                         0.832382      -0.853528
                                                         0.352316       0.146068
                                                         0.142977       0.153978
                                                         0.046761       0.000658

                          1       3    3px              12.015955       1.192141
                                                         5.108150       1.354170
                                                         2.048398       0.897267
                                                         0.832382       0.408839
                                                         0.352316       0.116648
                                                         0.142977       0.022184
                                                         0.046761       0.000308
                          1       3    3py              12.015955       1.192141
                                                         5.108150       1.354170
                                                         2.048398       0.897267
                                                         0.832382       0.408839
                                                         0.352316       0.116648
                                                         0.142977       0.022184
                                                         0.046761       0.000308
                          1       3    3pz              12.015955       1.192141
                                                         5.108150       1.354170
                                                         2.048398       0.897267
                                                         0.832382       0.408839
                                                         0.352316       0.116648
                                                         0.142977       0.022184
                                                         0.046761       0.000308

                          1       4    4px              12.015955      -1.062381
                                                         5.108150      -1.285791
                                                         2.048398      -0.727000
                                                         0.832382      -0.522764
                                                         0.352316       0.182681
                                                         0.142977       0.087560
                                                         0.046761       0.000981
                          1       4    4py              12.015955      -1.062381
                                                         5.108150      -1.285791
                                                         2.048398      -0.727000
                                                         0.832382      -0.522764
                                                         0.352316       0.182681
                                                         0.142977       0.087560
                                                         0.046761       0.000981
                          1       4    4pz              12.015955      -1.062381
                                                         5.108150      -1.285791
                                                         2.048398      -0.727000
                                                         0.832382      -0.522764
                                                         0.352316       0.182681
                                                         0.142977       0.087560
                                                         0.046761       0.000981

                          1       5    4dx2             12.015955       1.125955
                                                         5.108150       1.160468
                                                         2.048398       0.999335
                                                         0.832382       0.756334
                                                         0.352316       0.048604
                                                         0.142977       0.010378
                                                         0.046761      -0.000027
                          1       5    4dxy             12.015955       1.950212
                                                         5.108150       2.009990
                                                         2.048398       1.730899
                                                         0.832382       1.310009
                                                         0.352316       0.084185
                                                         0.142977       0.017974
                                                         0.046761      -0.000046
                          1       5    4dxz             12.015955       1.950212
                                                         5.108150       2.009990
                                                         2.048398       1.730899
                                                         0.832382       1.310009
                                                         0.352316       0.084185
                                                         0.142977       0.017974
                                                         0.046761      -0.000046
                          1       5    4dy2             12.015955       1.125955
                                                         5.108150       1.160468
                                                         2.048398       0.999335
                                                         0.832382       0.756334
                                                         0.352316       0.048604
                                                         0.142977       0.010378
                                                         0.046761      -0.000027
                          1       5    4dyz             12.015955       1.950212
                                                         5.108150       2.009990
                                                         2.048398       1.730899
                                                         0.832382       1.310009
                                                         0.352316       0.084185
                                                         0.142977       0.017974
                                                         0.046761      -0.000046
                          1       5    4dz2             12.015955       1.125955
                                                         5.108150       1.160468
                                                         2.048398       0.999335
                                                         0.832382       0.756334
                                                         0.352316       0.048604
                                                         0.142977       0.010378
                                                         0.046761      -0.000027

       Atomic covalent radius [Angstrom]:                                  0.730

       Atomic van der Waals radius [Angstrom]:                             1.520

     GTH Potential information for                                    GTH-PBE-q6

       Description:                       Goedecker-Teter-Hutter pseudopotential
                                           Goedecker et al., PRB 54, 1703 (1996)
                                          Hartwigsen et al., PRB 58, 3641 (1998)
                                                      Krack, TCA 114, 145 (2005)

       Gaussian exponent of the core charge distribution:               8.360253
       Electronic configuration (s p d ...):                               2   4

       Parameters of the local part of the GTH pseudopotential:

                          rloc        C1          C2          C3          C4
                        0.244554  -16.667215    2.487311

       Parameters of the non-local part of the GTH pseudopotential:

                   l      r(l)      h(i,j,l)

                   0    0.220956   18.337458
                   1    0.211332

  3. Atomic kind: N                                     Number of atoms:       4

     Orbital Basis Set                                           DZVP-MOLOPT-GTH

       Number of orbital shell sets:                                           1
       Number of orbital shells:                                               5
       Number of primitive Cartesian functions:                                7
       Number of Cartesian basis functions:                                   14
       Number of spherical basis functions:                                   13
       Norm type:                                                              2

       Normalised Cartesian orbitals:

                        Set   Shell   Orbital            Exponent    Coefficient

                          1       1    2s                9.042730      -0.237404
                                                         3.882225      -0.265910
                                                         1.512880       0.102064
                                                         0.586631       0.295369
                                                         0.222851       0.088647
                                                         0.084583       0.003860
                                                         0.039194       0.000722

                          1       2    3s                9.042730       0.259152
                                                         3.882225       0.251432
                                                         1.512880      -0.043896
                                                         0.586631      -0.328079
                                                         0.222851       0.175857
                                                         0.084583       0.069169
                                                         0.039194       0.004207

                          1       3    3px               9.042730       0.822162
                                                         3.882225       0.990771
                                                         1.512880       0.665657
                                                         0.586631       0.321705
                                                         0.222851       0.063706
                                                         0.084583       0.004155
                                                         0.039194      -0.000005
                          1       3    3py               9.042730       0.822162
                                                         3.882225       0.990771
                                                         1.512880       0.665657
                                                         0.586631       0.321705
                                                         0.222851       0.063706
                                                         0.084583       0.004155
                                                         0.039194      -0.000005
                          1       3    3pz               9.042730       0.822162
                                                         3.882225       0.990771
                                                         1.512880       0.665657
                                                         0.586631       0.321705
                                                         0.222851       0.063706
                                                         0.084583       0.004155
                                                         0.039194      -0.000005

                          1       4    4px               9.042730      -0.251449
                                                         3.882225      -0.215479
                                                         1.512880      -0.200519
                                                         0.586631      -0.125283
                                                         0.222851       0.136219
                                                         0.084583       0.034362
                                                         0.039194       0.000879
                          1       4    4py               9.042730      -0.251449
                                                         3.882225      -0.215479
                                                         1.512880      -0.200519
                                                         0.586631      -0.125283
                                                         0.222851       0.136219
                                                         0.084583       0.034362
                                                         0.039194       0.000879
                          1       4    4pz               9.042730      -0.251449
                                                         3.882225      -0.215479
                                                         1.512880      -0.200519
                                                         0.586631      -0.125283
                                                         0.222851       0.136219
                                                         0.084583       0.034362
                                                         0.039194       0.000879

                          1       5    4dx2              9.042730       1.099742
                                                         3.882225       0.532064
                                                         1.512880       0.873643
                                                         0.586631       0.456348
                                                         0.222851       0.017840
                                                         0.084583      -0.000857
                                                         0.039194      -0.000086
                          1       5    4dxy              9.042730       1.904809
                                                         3.882225       0.921562
                                                         1.512880       1.513195
                                                         0.586631       0.790419
                                                         0.222851       0.030900
                                                         0.084583      -0.001484
                                                         0.039194      -0.000150
                          1       5    4dxz              9.042730       1.904809
                                                         3.882225       0.921562
                                                         1.512880       1.513195
                                                         0.586631       0.790419
                                                         0.222851       0.030900
                                                         0.084583      -0.001484
                                                         0.039194      -0.000150
                          1       5    4dy2              9.042730       1.099742
                                                         3.882225       0.532064
                                                         1.512880       0.873643
                                                         0.586631       0.456348
                                                         0.222851       0.017840
                                                         0.084583      -0.000857
                                                         0.039194      -0.000086
                          1       5    4dyz              9.042730       1.904809
                                                         3.882225       0.921562
                                                         1.512880       1.513195
                                                         0.586631       0.790419
                                                         0.222851       0.030900
                                                         0.084583      -0.001484
                                                         0.039194      -0.000150
                          1       5    4dz2              9.042730       1.099742
                                                         3.882225       0.532064
                                                         1.512880       0.873643
                                                         0.586631       0.456348
                                                         0.222851       0.017840
                                                         0.084583      -0.000857
                                                         0.039194      -0.000086

       Atomic covalent radius [Angstrom]:                                  0.750

       Atomic van der Waals radius [Angstrom]:                             1.550

     GTH Potential information for                                    GTH-PBE-q5

       Description:                       Goedecker-Teter-Hutter pseudopotential
                                           Goedecker et al., PRB 54, 1703 (1996)
                                          Hartwigsen et al., PRB 58, 3641 (1998)
                                                      Krack, TCA 114, 145 (2005)

       Gaussian exponent of the core charge distribution:               6.208322
       Electronic configuration (s p d ...):                               2   3

       Parameters of the local part of the GTH pseudopotential:

                          rloc        C1          C2          C3          C4
                        0.283791  -12.415226    1.868096

       Parameters of the non-local part of the GTH pseudopotential:

                   l      r(l)      h(i,j,l)

                   0    0.255405   13.630263
                   1    0.245495

  4. Atomic kind: S                                     Number of atoms:       1

     Orbital Basis Set                                           DZVP-MOLOPT-GTH

       Number of orbital shell sets:                                           1
       Number of orbital shells:                                               5
       Number of primitive Cartesian functions:                                6
       Number of Cartesian basis functions:                                   14
       Number of spherical basis functions:                                   13
       Norm type:                                                              2

       Normalised Cartesian orbitals:

                        Set   Shell   Orbital            Exponent    Coefficient

                          1       1    2s                3.817591       0.157264
                                                         2.362752      -0.510082
                                                         0.861004      -0.067545
                                                         0.417525       0.341507
                                                         0.181514       0.065073
                                                         0.070571       0.000166

                          1       2    3s                3.817591      -0.204385
                                                         2.362752       0.558740
                                                         0.861004       0.301625
                                                         0.417525      -0.627222
                                                         0.181514       0.190853
                                                         0.070571       0.080605

                          1       3    3px               3.817591      -0.172386
                                                         2.362752      -0.175607
                                                         0.861004       0.224215
                                                         0.417525       0.286358
                                                         0.181514       0.049699
                                                         0.070571       0.001588
                          1       3    3py               3.817591      -0.172386
                                                         2.362752      -0.175607
                                                         0.861004       0.224215
                                                         0.417525       0.286358
                                                         0.181514       0.049699
                                                         0.070571       0.001588
                          1       3    3pz               3.817591      -0.172386
                                                         2.362752      -0.175607
                                                         0.861004       0.224215
                                                         0.417525       0.286358
                                                         0.181514       0.049699
                                                         0.070571       0.001588

                          1       4    4px               3.817591       0.011373
                                                         2.362752       0.235342
                                                         0.861004      -0.175793
                                                         0.417525      -0.223923
                                                         0.181514       0.115877
                                                         0.070571       0.033489
                          1       4    4py               3.817591       0.011373
                                                         2.362752       0.235342
                                                         0.861004      -0.175793
                                                         0.417525      -0.223923
                                                         0.181514       0.115877
                                                         0.070571       0.033489
                          1       4    4pz               3.817591       0.011373
                                                         2.362752       0.235342
                                                         0.861004      -0.175793
                                                         0.417525      -0.223923
                                                         0.181514       0.115877
                                                         0.070571       0.033489

                          1       5    4dx2              3.817591       0.133631
                                                         2.362752       0.806297
                                                         0.861004       0.453606
                                                         0.417525       0.175089
                                                         0.181514       0.017666
                                                         0.070571      -0.000330
                          1       5    4dxy              3.817591       0.231456
                                                         2.362752       1.396548
                                                         0.861004       0.785669
                                                         0.417525       0.303263
                                                         0.181514       0.030598
                                                         0.070571      -0.000571
                          1       5    4dxz              3.817591       0.231456
                                                         2.362752       1.396548
                                                         0.861004       0.785669
                                                         0.417525       0.303263
                                                         0.181514       0.030598
                                                         0.070571      -0.000571
                          1       5    4dy2              3.817591       0.133631
                                                         2.362752       0.806297
                                                         0.861004       0.453606
                                                         0.417525       0.175089
                                                         0.181514       0.017666
                                                         0.070571      -0.000330
                          1       5    4dyz              3.817591       0.231456
                                                         2.362752       1.396548
                                                         0.861004       0.785669
                                                         0.417525       0.303263
                                                         0.181514       0.030598
                                                         0.070571      -0.000571
                          1       5    4dz2              3.817591       0.133631
                                                         2.362752       0.806297
                                                         0.861004       0.453606
                                                         0.417525       0.175089
                                                         0.181514       0.017666
                                                         0.070571      -0.000330

       Atomic covalent radius [Angstrom]:                                  1.020

       Atomic van der Waals radius [Angstrom]:                             1.800

     GTH Potential information for                                    GTH-PBE-q6

       Description:                       Goedecker-Teter-Hutter pseudopotential
                                           Goedecker et al., PRB 54, 1703 (1996)
                                          Hartwigsen et al., PRB 58, 3641 (1998)
                                                      Krack, TCA 114, 145 (2005)

       Gaussian exponent of the core charge distribution:               2.834467
       Electronic configuration (s p d ...):                               2   4

       Parameters of the local part of the GTH pseudopotential:

                          rloc        C1          C2          C3          C4
                        0.420000   -5.986260

       Parameters of the non-local part of the GTH pseudopotential:

                   l      r(l)      h(i,j,l)

                   0    0.364820   13.143544   -4.241830
                                   -4.241830    5.476180
                   1    0.409480    3.700891

  5. Atomic kind: H                                     Number of atoms:      12

     Orbital Basis Set                                           DZVP-MOLOPT-GTH

       Number of orbital shell sets:                                           1
       Number of orbital shells:                                               3
       Number of primitive Cartesian functions:                                7
       Number of Cartesian basis functions:                                    5
       Number of spherical basis functions:                                    5
       Norm type:                                                              2

       Normalised Cartesian orbitals:

                        Set   Shell   Orbital            Exponent    Coefficient

                          1       1    2s               11.478000       0.129129
                                                         3.700759       0.177012
                                                         1.446884       0.141285
                                                         0.716815       0.245670
                                                         0.247919       0.094768
                                                         0.066918       0.004062
                                                         0.021708      -0.000053

                          1       2    3s               11.478000      -0.079256
                                                         3.700759      -0.152992
                                                         1.446884       0.015066
                                                         0.716815      -0.331234
                                                         0.247919       0.210690
                                                         0.066918       0.058630
                                                         0.021708      -0.003429

                          1       3    3px              11.478000       0.325290
                                                         3.700759       0.187466
                                                         1.446884       0.443300
                                                         0.716815       0.267738
                                                         0.247919       0.088285
                                                         0.066918       0.019092
                                                         0.021708       0.000629
                          1       3    3py              11.478000       0.325290
                                                         3.700759       0.187466
                                                         1.446884       0.443300
                                                         0.716815       0.267738
                                                         0.247919       0.088285
                                                         0.066918       0.019092
                                                         0.021708       0.000629
                          1       3    3pz              11.478000       0.325290
                                                         3.700759       0.187466
                                                         1.446884       0.443300
                                                         0.716815       0.267738
                                                         0.247919       0.088285
                                                         0.066918       0.019092
                                                         0.021708       0.000629

       Atomic covalent radius [Angstrom]:                                  0.320

       Atomic van der Waals radius [Angstrom]:                             1.090

     GTH Potential information for                                    GTH-PBE-q1

       Description:                       Goedecker-Teter-Hutter pseudopotential
                                           Goedecker et al., PRB 54, 1703 (1996)
                                          Hartwigsen et al., PRB 58, 3641 (1998)
                                                      Krack, TCA 114, 145 (2005)

       Gaussian exponent of the core charge distribution:              12.500000
       Electronic configuration (s p d ...):                                   1

       Parameters of the local part of the GTH pseudopotential:

                          rloc        C1          C2          C3          C4
                        0.200000   -4.178900    0.724463


 MOLECULE KIND INFORMATION


 All atoms are their own molecule, skipping detailed information


 TOTAL NUMBERS AND MAXIMUM NUMBERS

  Total number of            - Atomic kinds:                                   5
                             - Atoms:                                         37
                             - Shell sets:                                    37
                             - Shells:                                       161
                             - Primitive Cartesian functions:                258
                             - Cartesian basis functions:                    410
                             - Spherical basis functions:                    385

  Maximum angular momentum of- Orbital basis functions:                        2
                             - Local part of the GTH pseudopotential:          2
                             - Non-local part of the GTH pseudopotential:      2


 MODULE QUICKSTEP:  ATOMIC COORDINATES IN angstrom

 Atom  Kind  Element       X           Y           Z          Z(eff)       Mass
    1   1 C    6       5.848125    6.000912   10.726545       4.0000     12.0107
    2   1 C    6       5.271149    6.137467    9.371003       4.0000     12.0107
    3   1 C    6       5.755445    7.128097    8.465374       4.0000     12.0107
    4   1 C    6       6.793007    7.987021    8.913401       4.0000     12.0107
    5   1 C    6       7.264397    7.820979   10.235298       4.0000     12.0107
    6   1 C    6       6.843613    6.873834   11.163023       4.0000     12.0107
    7   1 C    6       8.223714    9.525042    9.228650       4.0000     12.0107
    8   1 C    6       9.166866   10.616379    9.143045       4.0000     12.0107
    9   1 C    6      10.998708   12.238544    9.503667       4.0000     12.0107
   10   1 C    6      10.267395   12.592784    8.381129       4.0000     12.0107
   11   1 C    6       9.203076   11.623599    8.178362       4.0000     12.0107
   12   1 C    6      12.155866   12.839443   10.066014       4.0000     12.0107
   13   1 C    6      13.801855   14.004554   10.759967       4.0000     12.0107
   14   1 C    6      13.666377   12.904473   11.661214       4.0000     12.0107
   15   1 C    6      14.398141   12.652415   12.826712       4.0000     12.0107
   16   1 C    6      15.292198   13.657442   13.206601       4.0000     12.0107
   17   1 C    6      15.506487   14.712248   12.312769       4.0000     12.0107
   18   1 C    6      14.825824   14.918349   11.127452       4.0000     12.0107
   19   2 O    8       8.220675    8.773323   10.440790       6.0000     15.9994
   20   2 O    8      12.580007   12.199926   11.241668       6.0000     15.9994
   21   3 N    7       7.412229    9.054890    8.318225       5.0000     14.0067
   22   3 N    7      12.881615   13.885429    9.687659       5.0000     14.0067
   23   3 N    7       5.498294    4.937320   11.523427       5.0000     14.0067
   24   3 N    7      15.898535   13.682632   14.403327       5.0000     14.0067
   25   4 S   16      10.410466   10.856197   10.362277       6.0000     32.0650
   26   5 H    1       8.400003   11.794391    7.475215       1.0000      1.0079
   27   5 H    1      10.438604   13.336538    7.587793       1.0000      1.0079
   28   5 H    1      14.979992   15.803470   10.545973       1.0000      1.0079
   29   5 H    1      14.215646   11.835276   13.482741       1.0000      1.0079
   30   5 H    1       4.597374    4.537126   11.408833       1.0000      1.0079
   31   5 H    1       5.760817    5.048064   12.529388       1.0000      1.0079
   32   5 H    1      15.796184   12.950675   15.075516       1.0000      1.0079
   33   5 H    1      16.361242   14.532725   14.809929       1.0000      1.0079
   34   5 H    1       4.546806    5.382653    9.072112       1.0000      1.0079
   35   5 H    1       5.338534    7.247889    7.472231       1.0000      1.0079
   36   5 H    1       7.207539    6.884772   12.194432       1.0000      1.0079
   37   5 H    1      16.242193   15.545538   12.591496       1.0000      1.0079




 SCF PARAMETERS         Density guess:                                   RESTART
                        --------------------------------------------------------
                        max_scf:                                              50
                        max_scf_history:                                       0
                        max_diis:                                              4
                        --------------------------------------------------------
                        eps_scf:                                        1.00E-06
                        eps_scf_history:                                0.00E+00
                        eps_diis:                                       1.00E-01
                        eps_eigval:                                     1.00E-05
                        --------------------------------------------------------
                        level_shift [a.u.]:                             0.000000
                        added MOs                                        50    0
                        --------------------------------------------------------
                        Mixing method:                            BROYDEN_MIXING
                                                charge density mixing in g-space
                        --------------------------------------------------------
                        No outer SCF

 PW_GRID| Information for grid number                                          1
 PW_GRID| Grid distributed over                                    12 processors
 PW_GRID| Real space group dimensions                                    12    1
 PW_GRID| the grid is blocked:                                                NO
 PW_GRID| Cutoff [a.u.]                                                    250.0
 PW_GRID| spherical cutoff:                                                   NO
 PW_GRID|   Bounds   1           -144     143                Points:         288
 PW_GRID|   Bounds   2           -144     143                Points:         288
 PW_GRID|   Bounds   3           -144     143                Points:         288
 PW_GRID| Volume element (a.u.^3)  0.2632E-02     Volume (a.u.^3)     62868.8221
 PW_GRID| Grid span                                                    FULLSPACE
 PW_GRID|   Distribution                         Average         Max         Min
 PW_GRID|   G-Vectors                          1990656.0     1990656     1990656
 PW_GRID|   G-Rays                                6912.0        6912        6912
 PW_GRID|   Real Space Points                  1990656.0     1990656     1990656

 PW_GRID| Information for grid number                                          2
 PW_GRID| Number of the reference grid                                         1
 PW_GRID| Grid distributed over                                    12 processors
 PW_GRID| Real space group dimensions                                    12    1
 PW_GRID| the grid is blocked:                                                NO
 PW_GRID| Cutoff [a.u.]                                                     83.3
 PW_GRID| spherical cutoff:                                                   NO
 PW_GRID|   Bounds   1            -90      89                Points:         180
 PW_GRID|   Bounds   2            -90      89                Points:         180
 PW_GRID|   Bounds   3            -90      89                Points:         180
 PW_GRID| Volume element (a.u.^3)  0.1078E-01     Volume (a.u.^3)     62868.8221
 PW_GRID| Grid span                                                    FULLSPACE
 PW_GRID|   Distribution                         Average         Max         Min
 PW_GRID|   G-Vectors                           486000.0      486540      485640
 PW_GRID|   G-Rays                                2700.0        2703        2698
 PW_GRID|   Real Space Points                   486000.0      486000      486000

 PW_GRID| Information for grid number                                          3
 PW_GRID| Number of the reference grid                                         1
 PW_GRID| Grid distributed over                                    12 processors
 PW_GRID| Real space group dimensions                                    12    1
 PW_GRID| the grid is blocked:                                                NO
 PW_GRID| Cutoff [a.u.]                                                     27.8
 PW_GRID| spherical cutoff:                                                   NO
 PW_GRID|   Bounds   1            -48      47                Points:          96
 PW_GRID|   Bounds   2            -48      47                Points:          96
 PW_GRID|   Bounds   3            -48      47                Points:          96
 PW_GRID| Volume element (a.u.^3)  0.7106E-01     Volume (a.u.^3)     62868.8221
 PW_GRID| Grid span                                                    FULLSPACE
 PW_GRID|   Distribution                         Average         Max         Min
 PW_GRID|   G-Vectors                            73728.0       73824       73632
 PW_GRID|   G-Rays                                 768.0         769         767
 PW_GRID|   Real Space Points                    73728.0       73728       73728

 PW_GRID| Information for grid number                                          4
 PW_GRID| Number of the reference grid                                         1
 PW_GRID| Grid distributed over                                    12 processors
 PW_GRID| Real space group dimensions                                    12    1
 PW_GRID| the grid is blocked:                                                NO
 PW_GRID| Cutoff [a.u.]                                                      9.3
 PW_GRID| spherical cutoff:                                                   NO
 PW_GRID|   Bounds   1            -30      29                Points:          60
 PW_GRID|   Bounds   2            -30      29                Points:          60
 PW_GRID|   Bounds   3            -30      29                Points:          60
 PW_GRID| Volume element (a.u.^3)  0.2911         Volume (a.u.^3)     62868.8221
 PW_GRID| Grid span                                                    FULLSPACE
 PW_GRID|   Distribution                         Average         Max         Min
 PW_GRID|   G-Vectors                            18000.0       18180       17880
 PW_GRID|   G-Rays                                 300.0         303         298
 PW_GRID|   Real Space Points                    18000.0       18000       18000

 PW_GRID| Information for grid number                                          5
 PW_GRID| Number of the reference grid                                         1
 PW_GRID| Grid distributed over                                    12 processors
 PW_GRID| Real space group dimensions                                    12    1
 PW_GRID| the grid is blocked:                                                NO
 PW_GRID| Cutoff [a.u.]                                                      3.1
 PW_GRID| spherical cutoff:                                                   NO
 PW_GRID|   Bounds   1            -16      15                Points:          32
 PW_GRID|   Bounds   2            -16      15                Points:          32
 PW_GRID|   Bounds   3            -16      15                Points:          32
 PW_GRID| Volume element (a.u.^3)   1.919         Volume (a.u.^3)     62868.8221
 PW_GRID| Grid span                                                    FULLSPACE
 PW_GRID|   Distribution                         Average         Max         Min
 PW_GRID|   G-Vectors                             2730.7        2752        2688
 PW_GRID|   G-Rays                                  85.3          86          84
 PW_GRID|   Real Space Points                     2730.7        3072        2048

 PW_GRID| Information for grid number                                          6
 PW_GRID| Number of the reference grid                                         1
 PW_GRID| Grid distributed over                                    12 processors
 PW_GRID| Real space group dimensions                                    12    1
 PW_GRID| the grid is blocked:                                                NO
 PW_GRID| Cutoff [a.u.]                                                      1.0
 PW_GRID| spherical cutoff:                                                   NO
 PW_GRID|   Bounds   1            -10       9                Points:          20
 PW_GRID|   Bounds   2            -10       9                Points:          20
 PW_GRID|   Bounds   3            -10       9                Points:          20
 PW_GRID| Volume element (a.u.^3)   7.859         Volume (a.u.^3)     62868.8221
 PW_GRID| Grid span                                                    FULLSPACE
 PW_GRID|   Distribution                         Average         Max         Min
 PW_GRID|   G-Vectors                              666.7         700         640
 PW_GRID|   G-Rays                                  33.3          35          32
 PW_GRID|   Real Space Points                      666.7         800         400

 PW_GRID| Information for grid number                                          7
 PW_GRID| Number of the reference grid                                         1
 PW_GRID| Grid distributed over                                    12 processors
 PW_GRID| Real space group dimensions                                    12    1
 PW_GRID| the grid is blocked:                                                NO
 PW_GRID| Cutoff [a.u.]                                                      0.3
 PW_GRID| spherical cutoff:                                                   NO
 PW_GRID|   Bounds   1             -6       5                Points:          12
 PW_GRID|   Bounds   2             -6       5                Points:          12
 PW_GRID|   Bounds   3             -6       5                Points:          12
 PW_GRID| Volume element (a.u.^3)   36.38         Volume (a.u.^3)     62868.8221
 PW_GRID| Grid span                                                    FULLSPACE
 PW_GRID|   Distribution                         Average         Max         Min
 PW_GRID|   G-Vectors                              144.0         180         120
 PW_GRID|   G-Rays                                  12.0          15          10
 PW_GRID|   Real Space Points                      144.0         144         144

 PW_GRID| Information for grid number                                          8
 PW_GRID| Number of the reference grid                                         1
 PW_GRID| Grid distributed over                                    12 processors
 PW_GRID| Real space group dimensions                                     3    4
 PW_GRID| the grid is blocked:                                                NO
 PW_GRID| Cutoff [a.u.]                                                      0.1
 PW_GRID| spherical cutoff:                                                   NO
 PW_GRID|   Bounds   1             -4       3                Points:           8
 PW_GRID|   Bounds   2             -4       3                Points:           8
 PW_GRID|   Bounds   3             -4       3                Points:           8
 PW_GRID| Volume element (a.u.^3)   122.8         Volume (a.u.^3)     62868.8221
 PW_GRID| Grid span                                                    FULLSPACE
 PW_GRID|   Distribution                         Average         Max         Min
 PW_GRID|   G-Vectors                               42.7          48          32
 PW_GRID|   G-Rays                                   5.3           6           4
 PW_GRID|   Real Space Points                       42.7          48          32

 PW_GRID| Information for grid number                                          9
 PW_GRID| Number of the reference grid                                         1
 PW_GRID| Grid distributed over                                    12 processors
 PW_GRID| Real space group dimensions                                     3    4
 PW_GRID| the grid is blocked:                                                NO
 PW_GRID| Cutoff [a.u.]                                                      0.0
 PW_GRID| spherical cutoff:                                                   NO
 PW_GRID|   Bounds   1             -2       1                Points:           4
 PW_GRID|   Bounds   2             -2       1                Points:           4
 PW_GRID|   Bounds   3             -2       1                Points:           4
 PW_GRID| Volume element (a.u.^3)   982.3         Volume (a.u.^3)     62868.8221
 PW_GRID| Grid span                                                    FULLSPACE
 PW_GRID|   Distribution                         Average         Max         Min
 PW_GRID|   G-Vectors                                5.3          12           0
 PW_GRID|   G-Rays                                   1.3           3           0
 PW_GRID|   Real Space Points                        5.3           8           4

 PW_GRID| Information for grid number                                         10
 PW_GRID| Number of the reference grid                                         1
 PW_GRID| Grid distributed over                                    12 processors
 PW_GRID| Real space group dimensions                                     3    4
 PW_GRID| the grid is blocked:                                                NO
 PW_GRID| Cutoff [a.u.]                                                      0.0
 PW_GRID| spherical cutoff:                                                   NO
 PW_GRID|   Bounds   1             -2       1                Points:           4
 PW_GRID|   Bounds   2             -2       1                Points:           4
 PW_GRID|   Bounds   3             -2       1                Points:           4
 PW_GRID| Volume element (a.u.^3)   982.3         Volume (a.u.^3)     62868.8221
 PW_GRID| Grid span                                                    FULLSPACE
 PW_GRID|   Distribution                         Average         Max         Min
 PW_GRID|   G-Vectors                                5.3          12           0
 PW_GRID|   G-Rays                                   1.3           3           0
 PW_GRID|   Real Space Points                        5.3           8           4

 PW_GRID| Information for grid number                                         11
 PW_GRID| Number of the reference grid                                         1
 PW_GRID| Grid distributed over                                    12 processors
 PW_GRID| Real space group dimensions                                     3    4
 PW_GRID| the grid is blocked:                                                NO
 PW_GRID| Cutoff [a.u.]                                                      0.0
 PW_GRID| spherical cutoff:                                                   NO
 PW_GRID|   Bounds   1             -1       0                Points:           2
 PW_GRID|   Bounds   2             -1       0                Points:           2
 PW_GRID|   Bounds   3             -1       0                Points:           2
 PW_GRID| Volume element (a.u.^3)   7859.         Volume (a.u.^3)     62868.8221
 PW_GRID| Grid span                                                    FULLSPACE
 PW_GRID|   Distribution                         Average         Max         Min
 PW_GRID|   G-Vectors                                0.7           2           0
 PW_GRID|   G-Rays                                   0.3           1           0
 PW_GRID|   Real Space Points                        0.7           2           0

 PW_GRID| Information for grid number                                         12
 PW_GRID| Number of the reference grid                                         1
 PW_GRID| Grid distributed over                                    12 processors
 PW_GRID| Real space group dimensions                                     3    4
 PW_GRID| the grid is blocked:                                                NO
 PW_GRID| Cutoff [a.u.]                                                      0.0
 PW_GRID| spherical cutoff:                                                   NO
 PW_GRID|   Bounds   1             -1       0                Points:           2
 PW_GRID|   Bounds   2             -1       0                Points:           2
 PW_GRID|   Bounds   3             -1       0                Points:           2
 PW_GRID| Volume element (a.u.^3)   7859.         Volume (a.u.^3)     62868.8221
 PW_GRID| Grid span                                                    FULLSPACE
 PW_GRID|   Distribution                         Average         Max         Min
 PW_GRID|   G-Vectors                                0.7           2           0
 PW_GRID|   G-Rays                                   0.3           1           0
 PW_GRID|   Real Space Points                        0.7           2           0

 PW_GRID| Information for grid number                                         13
 PW_GRID| Number of the reference grid                                         1
[...]
 flops   191 x    65 x    29             18001750       0.0%    100.0%      0.0%
 flops   194 x    65 x    29             18284500       0.0%    100.0%      0.0%
 flops   191 x    65 x    32             19864000       0.0%    100.0%      0.0%
 flops   194 x    65 x    32             20176000       0.0%    100.0%      0.0%
 flops     5 x     5 x    29             31668000       0.0%    100.0%      0.0%
 flops   191 x    67 x    29             37111300       0.0%    100.0%      0.0%
 flops   194 x    67 x    29             37694200       0.0%    100.0%      0.0%
 flops   191 x    67 x    32             40950400       0.0%    100.0%      0.0%
 flops   194 x    67 x    32             41593600       0.0%    100.0%      0.0%
 flops     5 x     5 x    32             46176000       0.0%    100.0%      0.0%
 flops    13 x     1 x    13             47108750       0.0%    100.0%      0.0%
 flops    13 x    13 x    15             49432500       0.0%    100.0%      0.0%
 flops   191 x    62 x    29             51512700       0.0%    100.0%      0.0%
 flops   194 x    62 x    29             52321800       0.0%    100.0%      0.0%
 flops   191 x    62 x    32             56841600       0.0%    100.0%      0.0%
 flops   194 x    62 x    32             57734400       0.0%    100.0%      0.0%
 flops     5 x    29 x     5            122983200       0.0%    100.0%      0.0%
 flops     5 x    32 x     5            140313600       0.0%    100.0%      0.0%
 flops     5 x    13 x    29            158340000       0.0%    100.0%      0.0%
 flops    13 x     5 x    29            158340000       0.0%    100.0%      0.0%
 flops     5 x    13 x    32            230880000       0.0%    100.0%      0.0%
 flops    13 x     5 x    32            230880000       0.0%    100.0%      0.0%
 flops     5 x    29 x    13            666159000       0.0%    100.0%      0.0%
 flops    13 x    29 x     5            666159000       0.0%    100.0%      0.0%
 flops     5 x    32 x    13            760032000       0.0%    100.0%      0.0%
 flops    13 x    32 x     5            760032000       0.0%    100.0%      0.0%
 flops    13 x    13 x    29            891982000       0.0%    100.0%      0.0%
 flops    13 x    13 x    32           1300624000       0.0%    100.0%      0.0%
 flops    13 x    29 x    13           3608361250       0.0%    100.0%      0.0%
 flops    13 x    32 x    13           4116840000       0.0%    100.0%      0.0%
 flops inhomo. stacks                           0       0.0%      0.0%      0.0%
 flops total                        14.479074E+09       0.0%    100.0%      0.0%
 flops max/rank                      3.143225E+09       0.0%    100.0%      0.0%
 matmuls inhomo. stacks                         0       0.0%      0.0%      0.0%
 matmuls total                            2426727       0.0%    100.0%      0.0%
 number of processed stacks                 98440       0.0%    100.0%      0.0%
 average stack size                                     0.0      24.7       0.0
 marketing flops                    16.967229E+09
 -------------------------------------------------------------------------------
 # multiplications                           1149
 max memory usage/rank               1.610879E+09
 # max total images/rank                        3
 # max 3D layers                                1
 # MPI messages exchanged                  110304
 MPI messages size (bytes):
  total size                         5.344842E+09
  min size                           0.000000E+00
  max size                         108.640000E+03
  average size                      48.455562E+03
 MPI breakdown and total messages size (bytes):
             size <=      128               41306                        0
       128 < size <=     8192                1518                  2072840
      8192 < size <=    32768               11624                185199808
     32768 < size <=   131072               55856               5157636152
    131072 < size <=  4194304                   0                        0
   4194304 < size <= 16777216                   0                        0
  16777216 < size                               0                        0
 -------------------------------------------------------------------------------

 *** WARNING in dbcsr_mm.F:290 :: Using a non-square number of MPI ranks ***
 *** might lead to poor performance. Used ranks: 12 Suggested: 9 25      ***

 -------------------------------------------------------------------------------
 -                                                                             -
 -                      DBCSR MESSAGE PASSING PERFORMANCE                      -
 -                                                                             -
 -------------------------------------------------------------------------------
 ROUTINE             CALLS      AVE VOLUME [Bytes]
 MP_Bcast               41                     12.
 MP_Allreduce         4277                      8.
 MP_Alltoall         28386                  11573.
 MP_ISend            27576                  20241.
 MP_IRecv            26966                  19425.
 -------------------------------------------------------------------------------

 -------------------------------------------------------------------------------
 -                                                                             -
 -                                DBM STATISTICS                               -
 -                                                                             -
 -------------------------------------------------------------------------------
    M  x    N  x    K                                          COUNT     PERCENT
 -------------------------------------------------------------------------------

 -------------------------------------------------------------------------------
 -                                                                             -
 -                                GRID STATISTICS                              -
 -                                                                             -
 -------------------------------------------------------------------------------
 LP    KERNEL             BACKEND                              COUNT     PERCENT
 4     collocate ortho    REF                                2243740      23.14%
 4     integrate ortho    REF                                2217650      22.87%
 3     collocate ortho    REF                                2045596      21.09%
 3     integrate ortho    REF                                2021810      20.85%
 2     collocate ortho    REF                                 587724       6.06%
 2     integrate ortho    REF                                 580890       5.99%
 0     collocate general  REF                                    444       0.00%
 -------------------------------------------------------------------------------

 MEMORY| Estimated peak process memory [MiB]                                1550

 -------------------------------------------------------------------------------
 ----                             MULTIGRID INFO                            ----
 -------------------------------------------------------------------------------
 count for grid        1:        2053999          cutoff [a.u.]          250.00
 count for grid        2:        1112800          cutoff [a.u.]           83.33
 count for grid        3:         920270          cutoff [a.u.]           27.78
 count for grid        4:         462218          cutoff [a.u.]            9.26
 count for grid        5:         179042          cutoff [a.u.]            3.09
 count for grid        6:           2496          cutoff [a.u.]            1.03
 count for grid        7:              0          cutoff [a.u.]            0.34
 count for grid        8:              0          cutoff [a.u.]            0.11
 count for grid        9:              0          cutoff [a.u.]            0.04
 count for grid       10:              0          cutoff [a.u.]            0.01
 count for grid       11:              0          cutoff [a.u.]            0.00
 count for grid       12:              0          cutoff [a.u.]            0.00
 count for grid       13:              0          cutoff [a.u.]            0.00
 count for grid       14:              0          cutoff [a.u.]            0.00
 count for grid       15:              0          cutoff [a.u.]            0.00
 count for grid       16:              0          cutoff [a.u.]            0.00
 total gridlevel count  :        4730825

 -------------------------------------------------------------------------------
 -                                                                             -
 -                         MESSAGE PASSING PERFORMANCE                         -
 -                                                                             -
 -------------------------------------------------------------------------------

 ROUTINE             CALLS      AVE VOLUME [Bytes]
 MP_Group               41
 MP_Bcast              518                1781297.
 MP_Allreduce        18850                    178.
 MP_Sync             11245
 MP_Alltoall         16458                4899932.
 MP_ISendRecv        86669                  71606.
 MP_Wait            100240
 MP_comm_split          56
 MP_ISend            14063                 270698.
 MP_IRecv            14214                 267823.
 MP_Recv               110                  36120.
 -------------------------------------------------------------------------------


 -------------------------------------------------------------------------------
 -                                                                             -
 -                           R E F E R E N C E S                               -
 -                                                                             -
 -------------------------------------------------------------------------------
 
 CP2K version 10.0 (Development Version), the CP2K developers group (2022).
 CP2K is freely available from https://www.cp2k.org/ .

 Kuehne,Thomas D.; Iannuzzi,Marcella; Del Ben,Mauro;
 Rybkin,Vladimir V.; Seewald,Patrick; Stein,Frederick; Laino,Teodoro;
 Khaliullin,Rustam Z.; Schuett,Ole; Schiffmann,Florian; Golze,Dorothea;
 Wilhelm,Jan; Chulkov,Sergey; Bani-Hashemian,Mohammad Hossein;
 Weber,Valery; Borstnik,Urban; Taillefumier,Mathieu;
 Jakobovits,Alice Shoshana; Lazzaro,Alfio; Pabst,Hans; Mueller,Tiziano;
 Schade,Robert; Guidon,Manuel; Andermatt,Samuel; Holmberg,Nico;
 Schenter,Gregory K.; Hehn,Anna; Bussy,Augustin; Belleflamme,Fabian;
 Tabacchi,Gloria; Gloess,Andreas; Lass,Michael; Bethune,Iain;
 Mundy,Christopher J.; Plessl,Christian; Watkins,Matt;
 VandeVondele,Joost; Krack,Matthias; Hutter,Juerg. 
 The Journal of Chemical Physics, 152 (19), (2020). 
 CP2K: An electronic structure and molecular dynamics software package -
 Quickstep: Efficient and accurate electronic structure calculations.
 https://doi.org/10.1063/5.0007045

 Goerigk, Lars; Hansen, Andreas; Bauer, Christoph; Ehrlich, Stephan;
 Najibi, Asim; Grimme, Stefan. , 19 (48), (2017). 
 A look at the density functional theory zoo with the advanced GMTKN55 database
 for general main group thermochemistry, kinetics and noncovalent interactions.
 https://doi.org/10.1039/C7CP04913G

 Schuett, Ole; Messmer, Peter; Hutter, Juerg; VandeVondele, Joost. 
 Electronic Structure Calculations on Graphics Processing Units, John
 Wiley & Sons, Ltd, 173-190 (2016). 
 GPU-Accelerated Sparse Matrix-Matrix Multiplication for
 Linear Scaling Density Functional Theory.
 https://doi.org/10.1002/9781118670712.ch8

 Borstnik, U; VandeVondele, J; Weber, V; Hutter, J. 
 PARALLEL COMPUTING, 40 (5-6), 47-58 (2014). 
 Sparse matrix multiplication: The distributed block-compressed sparse
 row library.
 https://doi.org/10.1016/j.parco.2014.03.012

 Hutter, J; Iannuzzi, M; Schiffmann, F; VandeVondele, J. 
 WIREs Comput Mol Sci., 4 (1), 15-25 (2014). 
 CP2K: atomistic simulations of condensed matter systems.
 https://doi.org/10.1002/wcms.1159

 Marek, A; Blum, V; Johanni, R; Havu, V; Lang, B; Auckenthaler, T;
 Heinecke, A; Bungartz, H; Lederer, H. 
 Journal of Physics: Condensed Matter, 26 (21), (2014). 
 The ELPA library: scalable parallel eigenvalue solutions for
 electronic structure
 theory and computational science.
 https://doi.org/10.1088/0953-8984/26/21/213201

 Grimme, S; Ehrlich, S; Goerigk, L. 
 JOURNAL OF COMPUTATIONAL CHEMISTRY, 32, 1456 (2011). 
 Effect of the damping function in dispersion corrected density functional theory.
 https://doi.org/10.1002/jcc.21759

 Grimme, S; Antony, J; Ehrlich, S; Krieg, H. 
 JOURNAL OF CHEMICAL PHYSICS, 132 (15), 154104 (2010). 
 A consistent and accurate ab initio parametrization of density
 functional dispersion correction (DFT-D) for the 94 elements H-Pu.
 https://doi.org/10.1063/1.3382344

 VandeVondele, J; Hutter, J. 
 JOURNAL OF CHEMICAL PHYSICS, 127 (11), 114105 (2007). 
 Gaussian basis sets for accurate calculations on molecular systems in
 gas and condensed phases.
 https://doi.org/10.1063/1.2770708

 Krack, M. 
 THEORETICAL CHEMISTRY ACCOUNTS, 114 (1-3), 145-152 (2005). 
 Pseudopotentials for H to Kr optimized for gradient-corrected
 exchange-correlation functionals.
 https://doi.org/10.1007/s00214-005-0655-y

 VandeVondele, J; Krack, M; Mohamed, F; Parrinello, M; Chassaing, T;
 Hutter, J. COMPUTER PHYSICS COMMUNICATIONS, 167 (2), 103-128 (2005). 
 QUICKSTEP: Fast and accurate density functional calculations using a
 mixed Gaussian and plane waves approach.
 https://doi.org/10.1016/j.cpc.2004.12.014

 Frigo, M; Johnson, SG. 
 PROCEEDINGS OF THE IEEE, 93 (2), 216-231 (2005). 
 The design and implementation of FFTW3.
 https://doi.org/10.1109/JPROC.2004.840301

 Iannuzzi, M; Chassaing, T; Wallman, T; Hutter, J. 
 CHIMIA, 59 (7-8), 499-503 (2005). 
 Ground and excited state density functional calculations with the
 Gaussian and augmented-plane-wave method.
 https://doi.org/10.2533/000942905777676164

 Martin,Richard L.. 
 The Journal of Chemical Physics, 118 (11), 4775-4777 (2003). 
 Natural transition orbitals.
 https://doi.org/10.1063/1.1558471

 Hartwigsen, C; Goedecker, S; Hutter, J. 
 PHYSICAL REVIEW B, 58 (7), 3641-3662 (1998). 
 Relativistic separable dual-space Gaussian pseudopotentials from H to Rn.
 https://doi.org/10.1103/PhysRevB.58.3641

 Lippert, G; Hutter, J; Parrinello, M. 
 MOLECULAR PHYSICS, 92 (3), 477-487 (1997). 
 A hybrid Gaussian and plane wave density functional scheme.
 https://doi.org/10.1080/002689797170220

 Perdew, JP; Burke, K; Ernzerhof, M. 
 PHYSICAL REVIEW LETTERS, 77 (18), 3865-3868 (1996). 
 Generalized gradient approximation made simple.
 https://doi.org/10.1103/PhysRevLett.77.3865

 Goedecker, S; Teter, M; Hutter, J. 
 PHYSICAL REVIEW B, 54 (3), 1703-1710 (1996). 
 Separable dual-space Gaussian pseudopotentials.
 https://doi.org/10.1103/PhysRevB.54.1703


 -------------------------------------------------------------------------------
 -                                                                             -
 -                                T I M I N G                                  -
 -                                                                             -
 -------------------------------------------------------------------------------
 SUBROUTINE                       CALLS  ASD         SELF TIME        TOTAL TIME
                                MAXIMUM       AVERAGE  MAXIMUM  AVERAGE  MAXIMUM
 CP2K                                 1  1.0    0.015    0.023  312.113  312.113
 qs_energies                          1  2.0    0.000    0.000  311.029  311.029
 scf_env_do_scf                       1  3.0    0.000    0.000  211.916  211.918
 scf_env_do_scf_inner_loop           30  4.0    0.001    0.002  211.916  211.918
 pw_transfer                       9907 10.4    0.385    0.408  171.832  173.518
 fft_wrap_pw1pw2                   9567 11.4    0.061    0.064  170.409  172.112
 qs_ks_update_qs_env                 30  5.0    0.000    0.000  148.065  148.067
 rebuild_ks_matrix                   30  6.0    0.000    0.000  148.059  148.060
 qs_ks_build_kohn_sham_matrix        30  7.0    0.004    0.004  148.059  148.060
 fft3d_ps                          9567 13.4   94.717   97.686  139.414  142.079
 fft_wrap_pw1pw2_250                362 12.3    6.110    6.304  128.679  130.484
 qs_vxc_create                       30  8.0    0.001    0.001  108.975  109.052
 xc_vxc_pw_create                    30  9.0    0.558    0.569  108.974  109.051
 qs_energies_properties               1  3.0    0.000    0.000   96.698   96.703
 tddfpt                               1  4.0    0.000    0.001   96.698   96.703
 tddfpt_davidson_solver               2  5.0    0.002    0.002   95.080   95.080
 tddfpt_compute_Aop_evects           14  6.0    0.000    0.000   93.910   93.910
 fhxc_kernel                         14  7.0    0.004    0.004   93.481   93.481
 xc_pw_derive                      1023 10.2    0.010    0.014   89.007   90.898
 qs_rho_update_rho                  172  7.4    0.001    0.001   69.241   69.246
 calculate_rho_elec                 172  8.4    0.414    0.422   69.240   69.245
 xc_rho_set_and_dset_create          31  9.9    0.628    0.666   63.985   65.859
 xc_pw_divergence                   170 10.0    0.006    0.007   57.661   59.484
 integrate_v_rspace                 170  8.2    0.009    0.010   51.839   54.386
 density_rs2pw                      172  9.4    0.024    0.025   45.725   48.282
 fft_wrap_pw1pw2_50                1546 12.7    2.361    2.539   33.239   33.932
 mp_alltoall_z22v                  9567 15.4   22.406   27.761   22.406   27.761
 xc_functional_eval                  31 10.9    0.000    0.000   25.518   27.455
 pbe_lda_eval                        31 11.9   25.517   27.455   25.517   27.455
 gspace_mixing                       29  5.0    0.275    0.277   27.304   27.304
 potential_pw2rs                    170  9.2    0.056    0.058   26.476   26.604
 grid_integrate_task_list           170  9.2   23.330   26.031   23.330   26.031
 tddfpt_apply_xc_analytic           140  8.0    0.153    0.158   25.766   26.002
 grid_collocate_task_list           172  9.4   22.808   25.604   22.808   25.604
 x_to_yz                           1794 14.2   13.602   13.792   24.069   25.330
 rs_pw_transfer                    8002 10.4    0.041    0.047   21.959   24.651
 sum_up_and_integrate                30  8.0    0.186    0.203   24.354   24.355
 yz_to_x                           1604 14.8    6.667    6.869   18.531   22.438
 broyden_mixing                      29  6.0   15.270   15.719   15.754   15.973
 xc_calc_2nd_deriv_analytical       140  9.0    1.101    1.145   15.076   15.128
 mp_waitall_1                    153282 13.0    9.171   12.441    9.171   12.441
 pw_scatter_p                      4864 13.1   11.598   11.913   11.598   11.913
 pw_gather_p                       4703 13.7   10.373   10.647   10.373   10.647
 rs_pw_transfer_RS2PW_50            141 12.0    1.221    1.285    6.074    8.640
 cp_dbcsr_sm_fm_multiply            814  7.3    0.013    0.014    4.910    7.763
 dbcsr_complete_redistribute       2944  9.2    0.142    0.209    3.490    6.311
 -------------------------------------------------------------------------------

 The number of warnings for this run is : 2
 
 -------------------------------------------------------------------------------
  **** **** ******  **  PROGRAM ENDED AT                 2022-07-19 08:14:48.820
 ***** ** ***  *** **   PROGRAM RAN ON            cpn-p27-19.compute.cbls.ccr.bu
 **    ****   ******    PROGRAM RAN BY                                  ppandeya
 ***** **    ** ** **   PROGRAM PROCESS ID                                 29005
  **** **  *******  **  PROGRAM STOPPED IN /projects/academic/cyberwksp21/Studen
                                           ts/ppandeya/project/LIBRA/step2/job4
