   This run of MOLCAS is using the pymolcas driver

                             OPE
                             OPE          NMOL  CASOP  ENMOLC A   SO
                 OPE        NMOLC        AS  OP EN  MO LC     AS  OP
                OPENM       OL CA        SO  PE NM  OL CA     SOP EN
                OP EN      MO   LC       AS  OP ENMOL  CASO   PENMOL
                OP  EN     MO   LC       AS  OP EN     MO     LC ASO
               OP   E  NMOL  C  AS       OP  EN MO     LC     AS  OP
               OP  E   NMO   LC AS        OPEN  MO     LCASOP EN   M
               O  PEN   MO  LCA  SO
            OPE   NMO   L   CAS    OP
        OPENMOL  CASOP     ENMOL   CASOPE
     OPENMOLCA   SOPENMOLCASOPEN   MOLCASOPE
    OPENMOLCAS   OP           EN   MOL    CAS
    OPENMOLCAS       OP  ENM        O     LCA
    OPENMOLCAS    OPEN  MOLCASO     P  E  NMO
    OPENMOLCAS     OP               E  N  MOL
    OPENMOLCA   SO           PENM   O  L  CAS    OPEN    MO    LCAS
    OPENMOLCA   SOP           ENM   O  L  CAS   OP  EN  MOLC  AS   O
    OPENMOLCA   SOPE           NM      O  LCA   S      OP  EN MO
    OPENMOLC                AS         O  PEN   M      OL  CA  SOPE
    OPENMO        LCASOPE  NMOL        C  ASO   P      ENMOLC     AS
    OPE     NMO      LCA  SO     P     E   NM   OL  CA SO  PE N   MO
          OPENMOLCA            SOPE   NMO        LCAS  O    P  ENMO
     OPENMOLCASOPENMOLCASOPENMOLCASOPENMOLCA
        OPENMOLCASOPENMOLCASOPENMOLCASOPE
            OPENMOLCASOPENMOLCASOPENM
               OPENMOLCASOPENMOLCA        version:
                   OPENMOLCASO
                       OPE                tag:

 OpenMolcas is free software; you can redistribute it and/or modify it
 under the terms of the GNU Lesser General Public License version 2.1.
 OpenMolcas is distributed in the hope that it will be useful, but it
 is provided "as is" and without any express or implied warranties.
 For more details see the full text of the license in the file
 LICENSE or in <http://www.gnu.org/licenses/>.

                 Copyright (C) The OpenMolcas Authors
           For the author list and the recommended citation,
                   consult the file CONTRIBUTORS.md

           *************************************************
           * pymolcas version py2.18                       *
           *   build 603b35e74725da5e9c3ba4c5da34d86f      *
           *   (after the EMIL interpreter by V. Veryazov) *
           *************************************************

configuration info
------------------
Host name: manganese.itc.univie.ac.at (Linux)
C Compiler ID: Intel
C flags: -std=gnu99
Fortran Compiler ID: Intel
Fortran flags: -fpp -i8 -r8 -heap-arrays
Definitions: _MOLCAS_;_I8_;_LINUX_
Parallel: OFF (GA=OFF)


   -------------------------------------------------------------------------------------------------------------------------------------------------
  |
  |           Project: MOLCAS
  |    Submitted from: /projects/academic/cyberwksp21/Students/jstetzler/Project/OpenMOLCAS_PEC_Calcuation/More_Excited_States/Geom_1.128300
  |      Scratch area: /projects/academic/cyberwksp21/Students/jstetzler/Project/OpenMOLCAS_PEC_Calcuation/More_Excited_States/Geom_1.128300/scratch
  |   Save outputs to: /projects/academic/cyberwksp21/Students/jstetzler/Project/OpenMOLCAS_PEC_Calcuation/More_Excited_States/Geom_1.128300
  |            Molcas: /projects/academic/cyberwksp21/Software/openmolcas_V21.10
  |
  | Scratch area is NOT empty
  |
  |    MOLCAS_DRIVER = /projects/academic/cyberwksp21/Software/openmolcas_V21.10/bin/pymolcas
  |    MOLCAS_MOLDEN = ON
  |    MOLCAS_NPROCS = 1
  |    MOLCAS_SOURCE = /projects/academic/cyberwksp21/Software/openmolcas_V21.10/
  | MOLCAS_STRUCTURE = 0
  |
   -------------------------------------------------------------------------------------------------------------------------------------------------

++ ---------   Input file   ---------

>>> COPY -FORCE MOLCAS.ScfOrb sratch/MOLCAS.scfOrb

&RASSCF
NActEl=10,0,0
Spin=1
LumOrb
TypeIndex
CIRoot=16,16,1

-- ----------------------------------

>>> COPY -FORCE MOLCAS.ScfOrb sratch/MOLCAS.scfOrb

*** symbolic link created: INPORB -> MOLCAS.ScfOrb
--- Start Module: rasscf at Thu Jul 14 13:50:57 2022 ---
 
()()()()()()()()()()()()()()()()()()()()()()()()()()()()()()()()()()()()()()()()()()()()()()()()()()

                                              &RASSCF

                                   only a single process is used
                       available to each process: 2.0 GB of memory, 1 thread?
                                             pid: 19203
()()()()()()()()()()()()()()()()()()()()()()()()()()()()()()()()()()()()()()()()()()()()()()()()()()
 
 
      Header of the ONEINT file:
      --------------------------
      
      Integrals generated by Gateway/Seward, Thu Jul 14 13:38:56 2022
 
 
      OrdInt status: non-squared
 
 
      Cartesian coordinates in Angstrom:
      -----------------------------------------------------
      No.  Label        X            Y            Z        
      -----------------------------------------------------
       1   C1         0.00000000   0.00000000   0.00000000
       2   O2         0.00000000   0.00000000   1.12830000
      -----------------------------------------------------
      Nuclear repulsion energy =   22.51219190
 
++    Wave function specifications:
      -----------------------------
 
      Number of closed shell electrons           4
      Number of electrons in active shells      10
      Max number of holes in RAS1 space          0
      Max nr of electrons in RAS3 space          0
      Number of inactive orbitals                2
      Number of active orbitals                 11
      Number of secondary orbitals              53
      Spin quantum number                      0.0
      State symmetry                             1
--
 
++    Orbital specifications:
      -----------------------
 
      Symmetry species                           1
                                                 a
      Frozen orbitals                            0
      Inactive orbitals                          2
      Active orbitals                           11
      RAS1 orbitals                              0
      RAS2 orbitals                             11
      RAS3 orbitals                              0
      Secondary orbitals                        53
      Deleted orbitals                           0
      Number of basis functions                 66
--
 
++    CI expansion specifications:
      ----------------------------
 
      Number of CSFs                         60984
      Number of determinants                106953
      Number of root(s) required                16
      Root chosen for geometry opt.             16
      CI roots used                              1     2     3     4     5     6     7     8     9    10
                                                11    12    13    14    15    16
      weights                                0.062 0.062 0.062 0.062 0.062 0.062 0.062 0.062 0.062 0.062
                                             0.062 0.062 0.062 0.062 0.062 0.062
      highest root included in the CI           16
      max. size of the explicit Hamiltonian    200
--
 
++    Optimization specifications:
      ----------------------------
 
      RASSCF algorithm: Conventional
      Maximum number of macro iterations       200
      Maximum number of SX iterations          100
      Threshold for RASSCF energy            0.100E-07
      Threshold for max MO rotation          0.100E+00
      Threshold for max BLB element          0.100E-03
      Level shift parameter                  0.500E+00
      Make Quasi-Newton update
--
 
      The MO-coefficients are taken from the file:
      INPORB                                                                                                                          
      Title: SCF orbitals                                                                  
 
      Total molecular charge    0.00
 
      ************************************************************************************************************************
      *                                                                                                                      *
      *                                            Wave function control section                                             *
      *                                                                                                                      *
      ************************************************************************************************************************
 
 
                                         RASSCF iterations: Energy and convergence statistics
                                         ----------------------------------------------------
 
      Iter CI   SX   CI       RASSCF       Energy    max ROT     max BLB   max BLB  Level Ln srch  Step   QN   Walltime
          iter iter root      energy       change     param      element    value   shift minimum  type update hh:mm:ss
 Nr of preliminary CI iterations:   6
        1   1   17    0  -112.46256671    0.00E+00  -0.11E+00*   5  16 1  0.67E-01*  0.14   0.00    SX    NO    0:00:22
        2   7   11    0  -112.50282579   -0.40E-01*  0.53E-01    3  50 1 -0.15E-01*  0.09   0.00    SX    NO    0:00:16
        3   4   10    0  -112.50634620   -0.35E-02*  0.37E-01    6  35 1 -0.33E-02*  0.09   0.00    SX    NO    0:00:11
        4   7   10    0  -112.50688580   -0.54E-03*  0.29E-01   11  19 1  0.15E-02*  0.09   0.00    SX    NO    0:00:15
        5  12   10    0  -112.50707406   -0.19E-03*  0.40E-01   11  19 1  0.13E-02*  0.10   2.50    LS   YES    0:00:21
        6  12   10    0  -112.50723909   -0.17E-03*  0.75E-01   11  19 1  0.10E-02*  0.10   2.36    QN   YES    0:00:24
        7  14   10    0  -112.50750280   -0.26E-03*  0.23E+00*   4  20 1 -0.12E-02*  0.09   2.50    QN   YES    0:00:34
        8  31   39    0  -112.51145328   -0.40E-02*  0.18E+00*  11  26 1 -0.93E-02*  0.10   2.50    LS   YES    0:01:15
        9  10   14    0  -112.51738556   -0.59E-02*  0.37E+00*  11  26 1 -0.12E-01*  0.09   2.50    QN   YES    0:00:23
       10   9   10    0  -112.52420452   -0.68E-02* -0.58E-01    7  19 1  0.12E-01*  0.10   1.03    QN   YES    0:00:22
       11   6   38    0  -112.52238791    0.18E-02* -0.10E+00*   1  65 1 -0.12E-01*  0.11  -0.50    SX   YES    0:00:14
       12   8   11    0  -112.52737559   -0.50E-02* -0.11E+00*  11  26 1 -0.88E-02*  0.10   2.50    LS   YES    0:00:20
       13   7   11    0  -112.53081523   -0.34E-02* -0.84E-01    7  26 1 -0.70E-02*  0.10   2.03    LS   YES    0:00:17
       14   9   11    0  -112.53202002   -0.12E-02*  0.55E-01    7  26 1 -0.77E-02*  0.10   1.37    QN   YES    0:00:21
       15   7   11    0  -112.53263494   -0.61E-03*  0.16E-01    7  26 1 -0.40E-02*  0.09   1.21    QN   YES    0:00:17
       16   7   10    0  -112.53274523   -0.11E-03*  0.66E-02    7  43 1 -0.10E-02*  0.10   1.19    QN   YES    0:00:16
       17   6    9    0  -112.53275783   -0.13E-04*  0.38E-02    4  20 1  0.28E-03*  0.10   1.27    QN   YES    0:00:14
       18   7    9    0  -112.53275984   -0.20E-05*  0.13E-02    7  26 1  0.14E-03*  0.10   1.31    QN   YES    0:00:16
       19   7    8    0  -112.53276019   -0.34E-06*  0.70E-03    7  43 1  0.53E-04   0.10   1.28    QN   YES    0:00:17
       20   6    8    0  -112.53276025   -0.68E-07* -0.60E-03    7  20 1 -0.25E-04   0.10   1.56    QN   YES    0:00:15
       21   6    7    0  -112.53276028   -0.28E-07*  0.26E-03    7  26 1 -0.17E-04   0.10   1.38    QN   YES    0:00:14
       22   4    7    0  -112.53276029   -0.65E-08   0.45E-04    7  43 1 -0.78E-05   0.10   1.25    QN   YES    0:00:11
      Convergence after 22 iterations
       23   2    7    0  -112.53276029   -0.87E-09   0.45E-04   10  14 1 -0.13E-05   0.10   1.25    QN   YES    0:00:09
 
      ************************************************************************************************************************
                                                      Wave function printout:
                       occupation of active orbitals, and spin coupling of open shells (u,d: Spin up or down)
      ************************************************************************************************************************
 
      Note: transformation to natural orbitals
      has been made, which may change the order of the CSFs.
 
      printout of CI-coefficients larger than  0.05 for root  1
      energy=    -112.972329
      conf/sym  11111111111     Coeff  Weight
             1  22222000000  -0.95406 0.91024
             8  222u2d00000  -0.08564 0.00733
            15  22u220d0000   0.08564 0.00733
            32  22220200000   0.05783 0.00334
            34  22220020000   0.05783 0.00334
           137  22202200000   0.09274 0.00860
           159  22ud2ud0000  -0.08486 0.00720
           223  22022020000   0.09274 0.00860
           407  22uu2dd0000  -0.08104 0.00657
 
      printout of CI-coefficients larger than  0.05 for root  2
      energy=    -112.641988
      conf/sym  11111111111     Coeff  Weight
             3  2222u0d0000  -0.90478 0.81863
             7  2222u00000d   0.12540 0.01572
            21  2u2220d0000   0.14600 0.02132
            25  2u22200000d   0.05698 0.00325
            39  222200u0d00  -0.05715 0.00327
            54  222udud0000  -0.13996 0.01959
            76  22u2d020000   0.18693 0.03494
           180  2u2d2ud0000  -0.07422 0.00551
           244  2ud22020000   0.10373 0.01076
           347  222uudd0000   0.07198 0.00518
           777  2220u2d0000  -0.10008 0.01002
           848  22udud20000   0.06375 0.00406
 
      printout of CI-coefficients larger than  0.05 for root  3
      energy=    -112.641986
      conf/sym  11111111111     Coeff  Weight
             2  2222ud00000  -0.90478 0.81863
             6  2222u0000d0   0.12539 0.01572
            20  2u222d00000   0.14601 0.02132
            24  2u2220000d0   0.05698 0.00325
            38  22220u00d00  -0.05715 0.00327
            53  222ud200000  -0.18693 0.03494
            75  22u2dud0000   0.13996 0.01959
           179  2u2d2200000  -0.10373 0.01076
           243  2ud22ud0000   0.07422 0.00551
           362  22u2udd0000   0.07198 0.00518
           847  22udu2d0000  -0.06375 0.00406
          1058  2202ud20000   0.10008 0.01002
 
      printout of CI-coefficients larger than  0.05 for root  4
      energy=    -112.586887
      conf/sym  11111111111     Coeff  Weight
             9  222u20d0000   0.68455 0.46861
            14  22u22d00000   0.68446 0.46849
           138  22202ud0000  -0.06535 0.00427
           158  22ud2200000  -0.06534 0.00427
           160  22ud2020000   0.06534 0.00427
           222  22022ud0000   0.06533 0.00427
           497  222u02d0000  -0.06333 0.00401
           568  22u20d20000   0.06332 0.00401
 
      printout of CI-coefficients larger than  0.05 for root  5
      energy=    -112.584106
      conf/sym  11111111111     Coeff  Weight
             8  222u2d00000  -0.49010 0.24020
             9  222u20d0000  -0.46685 0.21795
            14  22u22d00000   0.46691 0.21800
            15  22u220d0000  -0.49010 0.24020
            32  22220200000  -0.05548 0.00308
            33  22220ud0000  -0.08304 0.00690
            34  22220020000   0.05548 0.00308
           137  22202200000   0.07625 0.00581
           138  22202ud0000   0.06037 0.00364
           222  22022ud0000   0.06038 0.00365
           223  22022020000  -0.07625 0.00581
 
      printout of CI-coefficients larger than  0.05 for root  6
      energy=    -112.584106
      conf/sym  11111111111     Coeff  Weight
             8  222u2d00000   0.46687 0.21797
             9  222u20d0000  -0.49006 0.24016
            14  22u22d00000   0.49013 0.24023
            15  22u220d0000   0.46688 0.21798
            32  22220200000   0.05872 0.00345
            33  22220ud0000  -0.07846 0.00616
            34  22220020000  -0.05872 0.00345
           137  22202200000  -0.07346 0.00540
           138  22202ud0000   0.05704 0.00325
           158  22ud2200000  -0.05078 0.00258
           160  22ud2020000  -0.05078 0.00258
           222  22022ud0000   0.05705 0.00325
           223  22022020000   0.07346 0.00540
 
      printout of CI-coefficients larger than  0.05 for root  7
      energy=    -112.535296
      conf/sym  11111111111     Coeff  Weight
             1  22222000000   0.06135 0.00376
             4  2222u00d000  -0.88552 0.78415
             8  222u2d00000  -0.08644 0.00747
            12  222u20000d0  -0.06046 0.00366
            15  22u220d0000   0.08644 0.00747
            19  22u2200000d   0.06045 0.00365
            37  22220002000   0.09543 0.00911
            56  222udu0d000  -0.18071 0.03266
            65  222ud00u0d0  -0.07042 0.00496
            78  22u2d0ud000   0.18071 0.03266
            91  22u2d00u00d   0.07042 0.00496
           182  2u2d2u0d000  -0.06622 0.00438
           246  2ud220ud000   0.06622 0.00438
           348  222uud0d000   0.09802 0.00961
           364  22u2u0dd000  -0.09802 0.00961
           779  2220u20d000  -0.09708 0.00943
           851  22uduudd000   0.07504 0.00563
          1062  2202u02d000  -0.09708 0.00942
 
      printout of CI-coefficients larger than  0.05 for root  8
      energy=    -112.500696
      conf/sym  11111111111     Coeff  Weight
             2  2222ud00000  -0.12458 0.01552
             6  2222u0000d0  -0.87415 0.76414
            20  2u222d00000   0.28173 0.07937
            35  22220u0d000  -0.06013 0.00362
            44  2222000u0d0   0.05480 0.00300
            53  222ud200000   0.10249 0.01050
            63  222udu000d0  -0.06662 0.00444
            67  222ud000020  -0.05468 0.00299
            75  22u2dud0000  -0.06783 0.00460
            85  22u2d0u00d0   0.12602 0.01588
           189  2u2d2u000d0  -0.06659 0.00443
           253  2ud220u00d0   0.06449 0.00416
           353  222uud000d0   0.09280 0.00861
           369  22u2u0d00d0  -0.06228 0.00388
           797  2220u2000d0  -0.09170 0.00841
           869  22uduud00d0   0.07088 0.00502
          1080  2202u0200d0  -0.09371 0.00878
          8551  22uuudd00d0  -0.05254 0.00276
 
      printout of CI-coefficients larger than  0.05 for root  9
      energy=    -112.500693
      conf/sym  11111111111     Coeff  Weight
             3  2222u0d0000   0.12458 0.01552
             7  2222u00000d   0.87415 0.76413
            21  2u2220d0000  -0.28175 0.07938
            36  222200ud000   0.06013 0.00362
            49  2222000u00d  -0.05480 0.00300
            54  222udud0000  -0.06783 0.00460
            68  222udu0000d   0.12602 0.01588
            76  22u2d020000   0.10249 0.01050
            90  22u2d0u000d  -0.06662 0.00444
            94  22u2d000002  -0.05468 0.00299
           194  2u2d2u0000d   0.06449 0.00416
           258  2ud220u000d  -0.06659 0.00443
           357  222uud0000d  -0.06228 0.00388
           373  22u2u0d000d   0.09280 0.00861
           817  2220u20000d   0.09371 0.00878
           889  22uduud000d  -0.07357 0.00541
          1100  2202u02000d   0.09170 0.00841
          8557  22uuudd000d   0.05254 0.00276
 
      printout of CI-coefficients larger than  0.05 for root 10
      energy=    -112.447929
      conf/sym  11111111111     Coeff  Weight
             7  2222u00000d  -0.08672 0.00752
            16  22u2200d000  -0.88591 0.78483
            21  2u2220d0000  -0.31544 0.09951
            36  222200ud000   0.07841 0.00615
            54  222udud0000  -0.08914 0.00795
            76  22u2d020000   0.12233 0.01497
           225  220220ud000  -0.07678 0.00590
           569  22u2020d000   0.06365 0.00405
           572  22u2002d000   0.08021 0.00643
          1899  22u0220d000   0.07741 0.00599
          2110  220u2dud000  -0.06714 0.00451
 
      printout of CI-coefficients larger than  0.05 for root 11
      energy=    -112.447928
      conf/sym  11111111111     Coeff  Weight
             6  2222u0000d0   0.08670 0.00752
            10  222u200d000  -0.88591 0.78484
            20  2u222d00000   0.31543 0.09950
            35  22220u0d000  -0.07841 0.00615
            53  222ud200000   0.12233 0.01496
            75  22u2dud0000  -0.08914 0.00795
           140  22202u0d000   0.07678 0.00590
           499  222u020d000   0.08021 0.00643
           502  222u002d000   0.06365 0.00405
          1901  22u02udd000   0.06749 0.00455
          2112  220u202d000  -0.07741 0.00599
 
      printout of CI-coefficients larger than  0.05 for root 12
      energy=    -112.438670
      conf/sym  11111111111     Coeff  Weight
             3  2222u0d0000   0.07567 0.00573
             7  2222u00000d   0.28244 0.07977
            16  22u2200d000  -0.36028 0.12980
            21  2u2220d0000   0.74233 0.55105
            25  2u22200000d  -0.07623 0.00581
            54  222udud0000   0.24176 0.05845
            76  22u2d020000  -0.31018 0.09621
           244  2ud22020000   0.05705 0.00325
           637  2u2202d0000  -0.06202 0.00385
          1967  2u2022d0000  -0.06124 0.00375
 
      printout of CI-coefficients larger than  0.05 for root 13
      energy=    -112.438669
      conf/sym  11111111111     Coeff  Weight
             2  2222ud00000   0.07566 0.00573
             6  2222u0000d0   0.28242 0.07976
            10  222u200d000   0.36027 0.12979
            20  2u222d00000   0.74234 0.55107
            24  2u2220000d0  -0.07623 0.00581
            53  222ud200000   0.31018 0.09621
            75  22u2dud0000  -0.24177 0.05845
           179  2u2d2200000  -0.05705 0.00325
           638  2u220d20000   0.06202 0.00385
          2738  2u022d20000   0.06124 0.00375
 
      printout of CI-coefficients larger than  0.05 for root 14
      energy=    -112.414239
      conf/sym  11111111111     Coeff  Weight
             1  22222000000  -0.09117 0.00831
             4  2222u00d000  -0.09242 0.00854
             5  2222u000d00  -0.09768 0.00954
             8  222u2d00000   0.48158 0.23192
            12  222u20000d0  -0.35503 0.12605
            15  22u220d0000  -0.48158 0.23192
            19  22u2200000d   0.35512 0.12611
            22  2u22200d000   0.37649 0.14175
            23  2u222000d00   0.07126 0.00508
            28  u222200d000  -0.05166 0.00267
            32  22220200000   0.05369 0.00288
            34  22220020000   0.05369 0.00288
           137  22202200000  -0.06215 0.00386
           159  22ud2ud0000   0.05261 0.00277
           223  22022020000  -0.06214 0.00386
          1897  22u022d0000   0.10710 0.01147
          2108  220u2d20000  -0.10710 0.01147
 
      printout of CI-coefficients larger than  0.05 for root 15
      energy=    -112.394322
      conf/sym  11111111111     Coeff  Weight
            12  222u20000d0   0.11049 0.01221
            13  222u200000d  -0.65948 0.43492
            18  22u220000d0   0.65984 0.43539
            19  22u2200000d   0.11047 0.01220
            43  222200u00d0  -0.05716 0.00327
            47  22220u0000d  -0.05712 0.00326
            57  222ud0ud000  -0.05862 0.00344
            77  22u2du0d000   0.05865 0.00344
           152  22202u0000d   0.08055 0.00649
           168  22ud2u000d0  -0.07469 0.00558
           174  22ud20u000d  -0.07465 0.00557
           232  220220u00d0   0.08059 0.00649
           537  222u020000d   0.06289 0.00396
           540  222u002000d   0.05326 0.00284
           587  22u202000d0  -0.05329 0.00284
           590  22u200200d0  -0.06293 0.00396
          1917  22u022000d0  -0.05102 0.00260
          2150  220u202000d  -0.05099 0.00260
 
      printout of CI-coefficients larger than  0.05 for root 16
      energy=    -112.394322
      conf/sym  11111111111     Coeff  Weight
            12  222u20000d0  -0.65970 0.43521
            13  222u200000d  -0.11045 0.01220
            18  22u220000d0   0.11051 0.01221
            19  22u2200000d  -0.65962 0.43510
            42  22220u000d0  -0.05714 0.00327
            48  222200u000d   0.05713 0.00326
            56  222udu0d000  -0.05864 0.00344
            78  22u2d0ud000  -0.05864 0.00344
           147  22202u000d0   0.10770 0.01160
           237  220220u000d  -0.10769 0.01160
           517  222u02000d0   0.06658 0.00443
           610  22u2002000d   0.06658 0.00443
          1937  22u0220000d   0.05666 0.00321
          2130  220u20200d0  -0.05666 0.00321
 
      Natural orbitals and occupation numbers for root  1
      sym 1:   1.995786   1.981144   1.950864   1.950864   1.966289   0.062845   0.062845   0.006761   0.020319   0.001142
               0.001142
 
      Natural orbitals and occupation numbers for root  2
      sym 1:   1.993492   1.942431   1.955884   1.930260   1.031218   0.074844   1.020790   0.006829   0.019304   0.002132
               0.022816
 
      Natural orbitals and occupation numbers for root  3
      sym 1:   1.993492   1.942431   1.930260   1.955885   1.031218   1.020791   0.074844   0.006829   0.019304   0.022815
               0.002132
 
      Natural orbitals and occupation numbers for root  4
      sym 1:   1.996787   1.984491   1.492964   1.492831   1.964511   0.518916   0.519045   0.006251   0.016035   0.004084
               0.004084
 
      Natural orbitals and occupation numbers for root  5
      sym 1:   1.992407   1.984581   1.500906   1.500992   1.929865   0.530545   0.530462   0.006027   0.015868   0.004173
               0.004174
 
      Natural orbitals and occupation numbers for root  6
      sym 1:   1.992407   1.984581   1.500898   1.501000   1.929865   0.530553   0.530454   0.006027   0.015868   0.004174
               0.004173
 
      Natural orbitals and occupation numbers for root  7
      sym 1:   1.994247   1.970712   1.902414   1.902413   1.150617   0.103072   0.103071   0.846258   0.019849   0.003673
               0.003673
 
      Natural orbitals and occupation numbers for root  8
      sym 1:   1.992496   1.883271   1.922634   1.927648   1.089081   0.178133   0.081421   0.010276   0.020109   0.892220
               0.002710
 
      Natural orbitals and occupation numbers for root  9
      sym 1:   1.992496   1.883258   1.927649   1.922634   1.089093   0.081421   0.178146   0.010276   0.020109   0.002710
               0.892207
 
      Natural orbitals and occupation numbers for root 10
      sym 1:   1.991563   1.867147   1.124075   1.953160   1.911218   0.064972   0.193471   0.854168   0.018939   0.003643
               0.017644
 
      Natural orbitals and occupation numbers for root 11
      sym 1:   1.991563   1.867154   1.953161   1.124064   1.911223   0.193459   0.064972   0.854182   0.018939   0.017641
               0.003643
 
      Natural orbitals and occupation numbers for root 12
      sym 1:   1.989305   1.396065   1.738012   1.899301   1.709043   0.115149   0.884928   0.146189   0.016553   0.003079
               0.102375
 
      Natural orbitals and occupation numbers for root 13
      sym 1:   1.989305   1.396047   1.899299   1.738024   1.709050   0.884954   0.115151   0.146176   0.016553   0.102363
               0.003079
 
      Natural orbitals and occupation numbers for root 14
      sym 1:   1.986689   1.814182   1.578280   1.578335   1.928880   0.414117   0.414165   0.179296   0.027214   0.039417
               0.039426
 
      Natural orbitals and occupation numbers for root 15
      sym 1:   1.993627   1.982344   1.478196   1.478710   1.919170   0.061666   0.061659   0.012946   0.018443   0.496882
               0.496357
 
      Natural orbitals and occupation numbers for root 16
      sym 1:   1.993627   1.982344   1.478528   1.478378   1.919170   0.061664   0.061661   0.012946   0.018443   0.496695
               0.496543
 
      ************************************************************************************************************************
      *                                                                                                                      *
      *                                                    Final results                                                     *
      *                                                                                                                      *
      ************************************************************************************************************************
 
 
++    Wave function specifications:
      -----------------------------
 
      Number of closed shell electrons           4
      Number of electrons in active shells      10
      Max number of holes in RAS1 space          0
      Max nr of electrons in RAS3 space          0
      Number of inactive orbitals                2
      Number of active orbitals                 11
      Number of secondary orbitals              53
      Spin quantum number                      0.0
      State symmetry                             1
--
 
++    Orbital specifications:
      -----------------------
 
      Symmetry species                           1
                                                 a
      Frozen orbitals                            0
      Inactive orbitals                          2
      Active orbitals                           11
      RAS1 orbitals                              0
      RAS2 orbitals                             11
      RAS3 orbitals                              0
      Secondary orbitals                        53
      Deleted orbitals                           0
      Number of basis functions                 66
--
 
++    CI expansion specifications:
      ----------------------------
 
      Number of CSFs                         60984
      Number of determinants                106953
      Number of root(s) required                16
      CI roots used                              1     2     3     4     5     6     7     8     9    10
                                                11    12    13    14    15    16
      weights                                0.062 0.062 0.062 0.062 0.062 0.062 0.062 0.062 0.062 0.062
                                             0.062 0.062 0.062 0.062 0.062 0.062
      highest root included in the CI           16
      Root passed to geometry opt.              16
--
 
++    Final optimization conditions:
      ------------------------------
 
      Average CI energy                            -112.53276029
      RASSCF energy for state 16                   -112.39432161
      Super-CI energy                                -0.00000000
      RASSCF energy change                            0.00000000
      Max change in MO coefficients               0.749E-04
      Max non-diagonal density matrix element     0.454E-04
      Maximum BLB matrix element                 -0.129E-05
      (orbital pair  10,  14 in symmetry   1)
      Norm of electronic gradient            0.135E+00
--
 
 
      Final state energy(ies):
      ------------------------
 
::    RASSCF root number  1 Total energy:   -112.97232852
::    RASSCF root number  2 Total energy:   -112.64198755
::    RASSCF root number  3 Total energy:   -112.64198645
::    RASSCF root number  4 Total energy:   -112.58688745
::    RASSCF root number  5 Total energy:   -112.58410552
::    RASSCF root number  6 Total energy:   -112.58410552
::    RASSCF root number  7 Total energy:   -112.53529556
::    RASSCF root number  8 Total energy:   -112.50069598
::    RASSCF root number  9 Total energy:   -112.50069349
::    RASSCF root number 10 Total energy:   -112.44792852
::    RASSCF root number 11 Total energy:   -112.44792847
::    RASSCF root number 12 Total energy:   -112.43866982
::    RASSCF root number 13 Total energy:   -112.43866933
::    RASSCF root number 14 Total energy:   -112.41423923
::    RASSCF root number 15 Total energy:   -112.39432161
::    RASSCF root number 16 Total energy:   -112.39432161
 
++    Molecular orbitals:
      -------------------
 
      Pseudonatural active orbitals and approximate occupation numbers
 
 
 
 
      Molecular orbitals for symmetry species 1: a  
 
 
      Orbital                 1         2         3         4         5         6         7         8         9        10
      Energy           -20.8128  -11.4176    0.0000    0.0000    0.0000    0.0000    0.0000    0.0000    0.0000    0.0000
      Occ. No.           2.0000    2.0000    1.9905    1.8648    1.6995    1.6995    1.6297    0.3059    0.3059    0.2041
 
     1 C1     1s         0.0003    0.9994   -0.0522    0.0454   -0.0000   -0.0000    0.0326    0.0000    0.0000   -0.0692
     2 C1     2s         0.0011   -0.0014    0.1873   -0.3917   -0.0000   -0.0000    0.7835   -0.0000   -0.0000   -0.5901
     3 C1     3s         0.0013    0.0000   -0.0560    0.0733   -0.0000   -0.0000    0.0843   -0.0000   -0.0000   -0.2009
     4 C1     4s         0.0002    0.0007   -0.0081    0.0124   -0.0000   -0.0000    0.0131   -0.0000   -0.0000   -0.0476
     5 C1     2px       -0.0000    0.0000    0.0000   -0.0000    0.3210    0.1945    0.0000   -0.4670   -0.8711   -0.0000
     6 C1     3px       -0.0000   -0.0000    0.0000    0.0000   -0.0300   -0.0182   -0.0000   -0.1063   -0.1984    0.0000
     7 C1     4px       -0.0000    0.0000    0.0000    0.0000    0.0083    0.0051   -0.0000   -0.0457   -0.0854    0.0000
     8 C1     5px       -0.0000   -0.0000    0.0000    0.0000    0.0020    0.0012   -0.0000   -0.0193   -0.0361    0.0000
     9 C1     2py       -0.0000    0.0000    0.0000   -0.0000   -0.1945    0.3210    0.0000   -0.8711    0.4670   -0.0000
    10 C1     3py       -0.0000   -0.0000    0.0000    0.0000    0.0182   -0.0300   -0.0000   -0.1984    0.1063    0.0000
    11 C1     4py       -0.0000    0.0000    0.0000    0.0000   -0.0051    0.0083   -0.0000   -0.0854    0.0457    0.0000
    12 C1     5py       -0.0000   -0.0000    0.0000    0.0000   -0.0012    0.0020   -0.0000   -0.0361    0.0193    0.0000
    13 C1     2pz        0.0004   -0.0005    0.1761   -0.0618    0.0000    0.0000   -0.5354   -0.0000   -0.0000    0.3063
    14 C1     3pz        0.0009   -0.0006   -0.0709    0.0828   -0.0000   -0.0000    0.0665   -0.0000   -0.0000   -0.0644
    15 C1     4pz       -0.0001    0.0014    0.0112   -0.0153    0.0000    0.0000   -0.0149   -0.0000   -0.0000   -0.0945
    16 C1     5pz       -0.0001   -0.0010    0.0007   -0.0017    0.0000    0.0000   -0.0003   -0.0000   -0.0000   -0.0201
    17 C1     3d2-      -0.0000    0.0000    0.0000    0.0000   -0.0000    0.0000   -0.0000    0.0000   -0.0000   -0.0000
    18 C1     4d2-      -0.0000   -0.0000    0.0000    0.0000   -0.0000    0.0000   -0.0000   -0.0000    0.0000    0.0000
    19 C1     3d1-      -0.0000   -0.0000    0.0000    0.0000   -0.0252    0.0416    0.0000    0.0084   -0.0045   -0.0000
    20 C1     4d1-       0.0000   -0.0000   -0.0000    0.0000    0.0027   -0.0045   -0.0000   -0.0064    0.0034    0.0000
    21 C1     3d0        0.0003   -0.0001    0.0356   -0.0008    0.0000    0.0000   -0.0421    0.0000    0.0000    0.0349
    22 C1     4d0        0.0001   -0.0001   -0.0122    0.0182   -0.0000   -0.0000    0.0083    0.0000    0.0000    0.0142
    23 C1     3d1+       0.0000   -0.0000    0.0000   -0.0000    0.0416    0.0252    0.0000    0.0045    0.0084   -0.0000
    24 C1     4d1+      -0.0000   -0.0000   -0.0000    0.0000   -0.0045   -0.0027   -0.0000   -0.0034   -0.0064    0.0000
    25 C1     3d2+       0.0000   -0.0000   -0.0000   -0.0000    0.0000    0.0000    0.0000    0.0000    0.0000    0.0000
    26 C1     4d2+       0.0000    0.0000   -0.0000   -0.0000    0.0000    0.0000    0.0000   -0.0000   -0.0000   -0.0000
    27 C1     4f3-      -0.0000   -0.0000   -0.0000    0.0000   -0.0000   -0.0000   -0.0000   -0.0000   -0.0000    0.0000
    28 C1     4f2-      -0.0000    0.0000    0.0000    0.0000   -0.0000    0.0000    0.0000    0.0000   -0.0000    0.0000
    29 C1     4f1-      -0.0000    0.0000    0.0000   -0.0000   -0.0064    0.0106    0.0000    0.0052   -0.0028   -0.0000
    30 C1     4f0        0.0002    0.0000    0.0093   -0.0043    0.0000    0.0000   -0.0078    0.0000    0.0000    0.0021
    31 C1     4f1+       0.0000   -0.0000    0.0000   -0.0000    0.0106    0.0064    0.0000    0.0028    0.0052   -0.0000
    32 C1     4f2+       0.0000   -0.0000    0.0000   -0.0000    0.0000    0.0000   -0.0000    0.0000    0.0000   -0.0000
    33 C1     4f3+      -0.0000    0.0000    0.0000   -0.0000   -0.0000    0.0000    0.0000    0.0000   -0.0000    0.0000
    34 O2     1s         0.9997   -0.0000   -0.0218    0.0178   -0.0000   -0.0000    0.0065   -0.0000   -0.0000   -0.0001
    35 O2     2s        -0.0034    0.0011    0.7957    0.4640    0.0000    0.0000   -0.0195    0.0000    0.0000    0.0989
    36 O2     3s        -0.0017   -0.0000    0.0189    0.0005   -0.0000   -0.0000    0.0439    0.0000    0.0000    1.3153
    37 O2     4s         0.0007   -0.0007    0.0068   -0.0163    0.0000    0.0000   -0.0107    0.0000    0.0000    0.0362
    38 O2     2px       -0.0000    0.0000    0.0000   -0.0000    0.6812    0.4128    0.0000    0.3190    0.5950    0.0000
    39 O2     3px        0.0000    0.0000   -0.0000    0.0000    0.0153    0.0092    0.0000    0.0423    0.0789    0.0000
    40 O2     4px       -0.0000   -0.0000    0.0000    0.0000   -0.0021   -0.0013   -0.0000    0.0087    0.0162    0.0000
    41 O2     5px        0.0000   -0.0000    0.0000    0.0000   -0.0018   -0.0011   -0.0000    0.0025    0.0047    0.0000
    42 O2     2py       -0.0000    0.0000    0.0000   -0.0000   -0.4128    0.6812    0.0000    0.5950   -0.3190    0.0000
    43 O2     3py        0.0000    0.0000   -0.0000    0.0000   -0.0092    0.0153    0.0000    0.0789   -0.0423    0.0000
    44 O2     4py       -0.0000   -0.0000    0.0000    0.0000    0.0013   -0.0021   -0.0000    0.0162   -0.0087    0.0000
    45 O2     5py        0.0000   -0.0000    0.0000    0.0000    0.0011   -0.0018   -0.0000    0.0047   -0.0025    0.0000
    46 O2     2pz       -0.0002   -0.0017   -0.1404    0.6896   -0.0000   -0.0000    0.3647    0.0000    0.0000   -0.1109
    47 O2     3pz        0.0009   -0.0006    0.0249    0.0019    0.0000    0.0000   -0.0074    0.0000    0.0000   -0.0696
    48 O2     4pz       -0.0003    0.0005   -0.0043    0.0058    0.0000    0.0000    0.0041   -0.0000   -0.0000   -0.0812
    49 O2     5pz        0.0007    0.0001   -0.0024   -0.0004    0.0000    0.0000    0.0004   -0.0000   -0.0000   -0.0297
    50 O2     3d2-       0.0000    0.0000   -0.0000   -0.0000    0.0000   -0.0000    0.0000    0.0000   -0.0000    0.0000
    51 O2     4d2-      -0.0000   -0.0000   -0.0000   -0.0000    0.0000   -0.0000    0.0000    0.0000   -0.0000    0.0000
    52 O2     3d1-      -0.0000   -0.0000   -0.0000    0.0000    0.0198   -0.0327   -0.0000    0.0185   -0.0099    0.0000
    53 O2     4d1-       0.0000   -0.0000   -0.0000   -0.0000    0.0029   -0.0048   -0.0000    0.0031   -0.0017   -0.0000
    54 O2     3d0        0.0003    0.0012    0.0182   -0.0323    0.0000    0.0000   -0.0105   -0.0000   -0.0000   -0.0394
    55 O2     4d0        0.0000    0.0002   -0.0013   -0.0021   -0.0000   -0.0000    0.0019   -0.0000   -0.0000   -0.0175
    56 O2     3d1+      -0.0000   -0.0000   -0.0000    0.0000   -0.0327   -0.0198   -0.0000    0.0099    0.0185    0.0000
    57 O2     4d1+       0.0000   -0.0000   -0.0000   -0.0000   -0.0048   -0.0029   -0.0000    0.0017    0.0031   -0.0000
    58 O2     3d2+      -0.0000   -0.0000    0.0000    0.0000   -0.0000   -0.0000   -0.0000    0.0000    0.0000   -0.0000
    59 O2     4d2+       0.0000    0.0000    0.0000    0.0000   -0.0000   -0.0000   -0.0000    0.0000    0.0000   -0.0000
    60 O2     4f3-       0.0000   -0.0000    0.0000    0.0000   -0.0000   -0.0000    0.0000   -0.0000   -0.0000    0.0000
    61 O2     4f2-      -0.0000   -0.0000    0.0000   -0.0000   -0.0000    0.0000   -0.0000    0.0000   -0.0000    0.0000
    62 O2     4f1-       0.0000    0.0000    0.0000    0.0000   -0.0033    0.0054    0.0000   -0.0027    0.0015    0.0000
    63 O2     4f0       -0.0002   -0.0005   -0.0042    0.0043   -0.0000   -0.0000    0.0026   -0.0000   -0.0000    0.0053
    64 O2     4f1+       0.0000    0.0000    0.0000   -0.0000    0.0054    0.0033    0.0000   -0.0015   -0.0027    0.0000
    65 O2     4f2+       0.0000    0.0000   -0.0000    0.0000    0.0000    0.0000    0.0000    0.0000    0.0000   -0.0000
    66 O2     4f3+      -0.0000   -0.0000   -0.0000    0.0000   -0.0000    0.0000   -0.0000    0.0000    0.0000    0.0000
 
 
      Orbital                11        12        13
      Energy             0.0000    0.0000    0.0000
      Occ. No.           0.0199    0.1401    0.1400
 
     1 C1     1s        -0.0237   -0.0000   -0.0000
     2 C1     2s        -0.4671    0.0000    0.0001
     3 C1     3s         0.2058   -0.0000   -0.0000
     4 C1     4s         0.0102    0.0000    0.0000
     5 C1     2px       -0.0000   -0.0729   -0.1218
     6 C1     3px        0.0000    0.4344    0.7260
     7 C1     4px        0.0000    0.2501    0.4180
     8 C1     5px        0.0000    0.1042    0.1741
     9 C1     2py       -0.0000   -0.1218    0.0729
    10 C1     3py        0.0000    0.7259   -0.4344
    11 C1     4py        0.0000    0.4180   -0.2501
    12 C1     5py        0.0000    0.1741   -0.1042
    13 C1     2pz       -0.8248    0.0000    0.0000
    14 C1     3pz        0.2609    0.0001    0.0002
    15 C1     4pz       -0.0415    0.0001    0.0001
    16 C1     5pz       -0.0226    0.0000    0.0000
    17 C1     3d2-      -0.0000   -0.0000    0.0000
    18 C1     4d2-       0.0000   -0.0000    0.0000
    19 C1     3d1-      -0.0000   -0.0328    0.0196
    20 C1     4d1-      -0.0000    0.0041   -0.0025
    21 C1     3d0        0.0575   -0.0000   -0.0000
    22 C1     4d0        0.0159   -0.0000   -0.0000
    23 C1     3d1+      -0.0000   -0.0196   -0.0328
    24 C1     4d1+       0.0000    0.0025    0.0041
    25 C1     3d2+       0.0000   -0.0000   -0.0000
    26 C1     4d2+      -0.0000   -0.0000   -0.0000
    27 C1     4f3-       0.0000   -0.0000   -0.0000
    28 C1     4f2-      -0.0000    0.0000   -0.0000
    29 C1     4f1-      -0.0000   -0.0121    0.0073
    30 C1     4f0        0.0119   -0.0000   -0.0000
    31 C1     4f1+      -0.0000   -0.0073   -0.0121
    32 C1     4f2+       0.0000    0.0000    0.0000
    33 C1     4f3+      -0.0000    0.0000    0.0000
    34 O2     1s         0.0610    0.0000    0.0000
    35 O2     2s         0.5409   -0.0000   -0.0000
    36 O2     3s        -0.0333   -0.0001   -0.0001
    37 O2     4s         0.0761   -0.0000   -0.0000
    38 O2     2px        0.0000    0.0353    0.0588
    39 O2     3px       -0.0000   -0.0127   -0.0212
    40 O2     4px       -0.0000   -0.0087   -0.0145
    41 O2     5px       -0.0000   -0.0024   -0.0039
    42 O2     2py        0.0000    0.0588   -0.0353
    43 O2     3py       -0.0000   -0.0211    0.0127
    44 O2     4py       -0.0000   -0.0145    0.0087
    45 O2     5py       -0.0000   -0.0039    0.0024
    46 O2     2pz       -0.7242   -0.0000   -0.0000
    47 O2     3pz        0.2919   -0.0000   -0.0000
    48 O2     4pz       -0.0373    0.0000    0.0000
    49 O2     5pz       -0.0161    0.0000    0.0000
    50 O2     3d2-      -0.0000    0.0000   -0.0000
    51 O2     4d2-      -0.0000    0.0000   -0.0000
    52 O2     3d1-       0.0000    0.0137   -0.0082
    53 O2     4d1-       0.0000   -0.0036    0.0022
    54 O2     3d0       -0.0959    0.0000    0.0000
    55 O2     4d0       -0.0240    0.0000    0.0000
    56 O2     3d1+       0.0000    0.0082    0.0137
    57 O2     4d1+      -0.0000   -0.0022   -0.0036
    58 O2     3d2+       0.0000    0.0000    0.0000
    59 O2     4d2+       0.0000    0.0000    0.0000
    60 O2     4f3-       0.0000    0.0000    0.0000
    61 O2     4f2-       0.0000   -0.0000    0.0000
    62 O2     4f1-      -0.0000   -0.0006    0.0003
    63 O2     4f0        0.0096   -0.0000   -0.0000
    64 O2     4f1+       0.0000   -0.0003   -0.0006
    65 O2     4f2+      -0.0000   -0.0000   -0.0000
    66 O2     4f3+      -0.0000   -0.0000   -0.0000
--
 
      Von Neumann Entropy (Root   1) =  0.53174
 

      Mulliken population analysis for root number:  1
      -----------------------------------------------
 
 
++    Molecular charges:
      ------------------
 
      Mulliken charges per centre and basis function type
      ---------------------------------------------------
 
                C1      O2    
      1s       1.9989  1.9994
      2s       1.5584  1.7801
      2px      0.5858  1.3713
      2pz      0.8899  1.4504
      2py      0.5858  1.3713
      3s       0.0598  0.0838
      3px     -0.0014  0.0032
      3pz      0.0796  0.0067
      3py     -0.0014  0.0032
      4s       0.0055 -0.0013
      3d2+     0.0000  0.0000
      3d1+     0.0350  0.0143
      3d0      0.0334  0.0135
      3d1-     0.0350  0.0143
      3d2-     0.0000  0.0000
      4px     -0.0019 -0.0004
      4pz     -0.0056 -0.0010
      4py     -0.0019 -0.0004
      4d2+     0.0000 -0.0000
      4d1+    -0.0017  0.0019
      4d0      0.0124  0.0011
      4d1-    -0.0017  0.0019
      4d2-     0.0000 -0.0000
      5px     -0.0002 -0.0000
      5pz      0.0006  0.0001
      5py     -0.0002 -0.0000
      4f3+     0.0000  0.0000
      4f2+     0.0000  0.0000
      4f1+     0.0075  0.0014
      4f0      0.0037  0.0008
      4f1-     0.0075  0.0014
      4f2-     0.0000  0.0000
      4f3-     0.0000  0.0000
      Total    5.8830  8.1170
 
      N-E      0.1170 -0.1170
 
      Total electronic charge=   14.000000
 
      Total            charge=   -0.000000
--
 
 

      Expectation values of various properties for root number:  1
      -----------------------------------------------------------
 
 
++    Molecular properties:
      ---------------------
 
      Charge (e):
                      =   -0.0000
      Dipole Moment (Debye):
      Origin of the operator (Ang)=    0.0000    0.0000    0.0000
                   X=  5.7435E-05               Y=  4.5818E-06               Z=  3.6790E-01           Total=  3.6790E-01
      Quadrupole Moment (Debye*Ang):
      Origin of the operator (Ang)=    0.0000    0.0000    0.6447
                  XX= -1.0231E+01              XY= -3.2238E-06              XZ= -6.7793E-05              YY= -1.0231E+01
                  YZ= -5.3515E-06              ZZ= -1.1781E+01
      In traceless form (Debye*Ang)
                  XX=  7.7521E-01              XY= -4.8357E-06              XZ= -1.0169E-04              YY=  7.7521E-01
                  YZ= -8.0273E-06              ZZ= -1.5504E+00
--
 

      LoProp population analysis for root number:  1
      -----------------------------------------------
 
 
++    LoProp analysis:
      ----------------
 
 
 
  Input file to MOLDEN was generated!
 
 
++    Static properties:
      ------------------
 
 
      LoProp Charges per center
 

                   C1       O2    
      Nuclear      6.0000   8.0000
      Electronic  -5.9749  -8.0251
 
      Total        0.0251  -0.0251
--
 
 
      Natural Bond Order analysis for root number:  1
 
++    Natural Bond Order analysis
      ---------------------------
      Based on LoProp computed density
      -------------------------------------------------------------------------------------
      Atom A       Atom B       Bond Order
        C1           O2             0.763
      -------------------------------------------------------------------------------------
      NBO located      1.525 electrons involved in    1 bonds.
      NBO located      1.002 non-bonded electrons on atom C1        
      The remaining    5.272 electrons are to be considered as diffuse
--
 
--
 
      Von Neumann Entropy (Root   2) =  1.46861
 

      Mulliken population analysis for root number:  2
      -----------------------------------------------
 
 
++    Molecular charges:
      ------------------
 
      Mulliken charges per centre and basis function type
      ---------------------------------------------------
 
                C1      O2    
      1s       1.9989  1.9994
      2s       1.1595  1.7759
      2px      1.1457  1.4721
      2pz      0.6012  1.2831
      2py      0.8212  1.3766
      3s       0.0435  0.0099
      3px      0.0491 -0.0264
      3pz      0.0648  0.0003
      3py      0.0169 -0.0083
      4s       0.0040 -0.0016
      3d2+     0.0000  0.0000
      3d1+     0.0371  0.0187
      3d0      0.0295  0.0141
      3d1-     0.0354  0.0164
      3d2-     0.0000  0.0000
      4px      0.0238 -0.0040
      4pz     -0.0036 -0.0018
      4py      0.0080 -0.0017
      4d2+     0.0000  0.0000
      4d1+    -0.0025  0.0030
      4d0      0.0106  0.0010
      4d1-    -0.0019  0.0024
      4d2-     0.0000 -0.0000
      5px      0.0047 -0.0007
      5pz      0.0005 -0.0001
      5py      0.0017 -0.0003
      4f3+     0.0000  0.0000
      4f2+     0.0000  0.0000
      4f1+     0.0086  0.0019
      4f0      0.0034  0.0008
      4f1-     0.0078  0.0016
      4f2-     0.0000  0.0000
      4f3-     0.0000  0.0000
      Total    6.0677  7.9323
 
      N-E     -0.0677  0.0677
 
      Total electronic charge=   14.000000
 
      Total            charge=   -0.000000
--
 
 

      Expectation values of various properties for root number:  2
      -----------------------------------------------------------
 
 
++    Molecular properties:
      ---------------------
 
      Charge (e):
                      =   -0.0000
      Dipole Moment (Debye):
      Origin of the operator (Ang)=    0.0000    0.0000    0.0000
                   X=  9.2372E-05               Y= -4.5736E-05               Z=  2.6885E-01           Total=  2.6885E-01
      Quadrupole Moment (Debye*Ang):
      Origin of the operator (Ang)=    0.0000    0.0000    0.6447
                  XX= -1.3416E+01              XY=  1.6324E+00              XZ= -3.1553E-04              YY= -1.1730E+01
                  YZ=  1.7274E-04              ZZ= -1.0710E+01
      In traceless form (Debye*Ang)
                  XX= -2.1959E+00              XY=  2.4486E+00              XZ= -4.7329E-04              YY=  3.3332E-01
                  YZ=  2.5911E-04              ZZ=  1.8625E+00
--
 

      LoProp population analysis for root number:  2
      -----------------------------------------------
 
 
++    LoProp analysis:
      ----------------
 
 
 
  Input file to MOLDEN was generated!
 
 
++    Static properties:
      ------------------
 
 
      LoProp Charges per center
 

                   C1       O2    
      Nuclear      6.0000   8.0000
      Electronic  -6.0687  -7.9313
 
      Total       -0.0687   0.0687
--
 
 
      Natural Bond Order analysis for root number:  2
 
++    Natural Bond Order analysis
      ---------------------------
      Based on LoProp computed density
      -------------------------------------------------------------------------------------
      Atom A       Atom B       Bond Order
      -------------------------------------------------------------------------------------
      NBO located      0.996 non-bonded electrons on atom C1        
      NBO located      0.952 non-bonded electrons on atom C1        
      The remaining    5.576 electrons are to be considered as diffuse
--
 
--
 
      Von Neumann Entropy (Root   3) =  1.46861
 

      Mulliken population analysis for root number:  3
      -----------------------------------------------
 
 
++    Molecular charges:
      ------------------
 
      Mulliken charges per centre and basis function type
      ---------------------------------------------------
 
                C1      O2    
      1s       1.9989  1.9994
      2s       1.1595  1.7759
      2px      0.8212  1.3766
      2pz      0.6012  1.2831
      2py      1.1457  1.4721
      3s       0.0435  0.0099
      3px      0.0169 -0.0083
      3pz      0.0648  0.0003
      3py      0.0491 -0.0264
      4s       0.0040 -0.0016
      3d2+     0.0000  0.0000
      3d1+     0.0354  0.0164
      3d0      0.0295  0.0141
      3d1-     0.0371  0.0187
      3d2-     0.0000  0.0000
      4px      0.0080 -0.0017
      4pz     -0.0036 -0.0018
      4py      0.0238 -0.0040
      4d2+     0.0000 -0.0000
      4d1+    -0.0019  0.0024
      4d0      0.0106  0.0010
      4d1-    -0.0025  0.0030
      4d2-     0.0000 -0.0000
      5px      0.0017 -0.0003
      5pz      0.0005 -0.0001
      5py      0.0047 -0.0007
      4f3+     0.0000  0.0000
      4f2+     0.0000  0.0000
      4f1+     0.0078  0.0016
      4f0      0.0034  0.0008
      4f1-     0.0086  0.0019
      4f2-     0.0000  0.0000
      4f3-     0.0000  0.0000
      Total    6.0677  7.9323
 
      N-E     -0.0677  0.0677
 
      Total electronic charge=   14.000000
 
      Total            charge=   -0.000000
--
 
 

      Expectation values of various properties for root number:  3
      -----------------------------------------------------------
 
 
++    Molecular properties:
      ---------------------
 
      Charge (e):
                      =   -0.0000
      Dipole Moment (Debye):
      Origin of the operator (Ang)=    0.0000    0.0000    0.0000
                   X=  4.8142E-05               Y=  5.7905E-05               Z=  2.6880E-01           Total=  2.6880E-01
      Quadrupole Moment (Debye*Ang):
      Origin of the operator (Ang)=    0.0000    0.0000    0.6447
                  XX= -1.1730E+01              XY= -1.6324E+00              XZ= -1.5352E-04              YY= -1.3416E+01
                  YZ= -2.1045E-04              ZZ= -1.0710E+01
      In traceless form (Debye*Ang)
                  XX=  3.3329E-01              XY= -2.4486E+00              XZ= -2.3028E-04              YY= -2.1958E+00
                  YZ= -3.1567E-04              ZZ=  1.8625E+00
--
 

      LoProp population analysis for root number:  3
      -----------------------------------------------
 
 
++    LoProp analysis:
      ----------------
 
 
 
  Input file to MOLDEN was generated!
 
 
++    Static properties:
      ------------------
 
 
      LoProp Charges per center
 

                   C1       O2    
      Nuclear      6.0000   8.0000
      Electronic  -6.0687  -7.9313
 
      Total       -0.0687   0.0687
--
 
 
      Natural Bond Order analysis for root number:  3
 
++    Natural Bond Order analysis
      ---------------------------
      Based on LoProp computed density
      -------------------------------------------------------------------------------------
      Atom A       Atom B       Bond Order
      -------------------------------------------------------------------------------------
      NBO located      0.996 non-bonded electrons on atom C1        
      NBO located      0.952 non-bonded electrons on atom C1        
      The remaining    5.576 electrons are to be considered as diffuse
--
 
--
 
      Von Neumann Entropy (Root   4) =  1.79705
 

      Mulliken population analysis for root number:  4
      -----------------------------------------------
 
 
++    Molecular charges:
      ------------------
 
      Mulliken charges per centre and basis function type
      ---------------------------------------------------
 
                C1      O2    
      1s       1.9989  1.9994
      2s       1.5543  1.7900
      2px      0.6672  1.3090
      2pz      0.8431  1.4618
      2py      0.6672  1.3089
      3s       0.0596  0.1062
      3px      0.0003 -0.0130
      3pz      0.0786  0.0119
      3py      0.0003 -0.0130
      4s       0.0055 -0.0013
      3d2+     0.0000  0.0000
      3d1+     0.0305  0.0115
      3d0      0.0347  0.0131
      3d1-     0.0305  0.0115
      3d2-     0.0000  0.0000
      4px      0.0038 -0.0017
      4pz     -0.0060 -0.0007
      4py      0.0038 -0.0017
      4d2+     0.0000 -0.0000
      4d1+    -0.0022  0.0016
      4d0      0.0124  0.0011
      4d1-    -0.0022  0.0016
      4d2-     0.0000 -0.0000
      5px      0.0009 -0.0002
      5pz      0.0006  0.0002
      5py      0.0009 -0.0002
      4f3+     0.0000  0.0000
      4f2+     0.0000  0.0000
      4f1+     0.0071  0.0011
      4f0      0.0039  0.0008
      4f1-     0.0071  0.0011
      4f2-     0.0000  0.0000
      4f3-     0.0000  0.0000
      Total    6.0008  7.9992
 
      N-E     -0.0008  0.0008
 
      Total electronic charge=   14.000000
 
      Total            charge=   -0.000000
--
 
 

      Expectation values of various properties for root number:  4
      -----------------------------------------------------------
 
 
++    Molecular properties:
      ---------------------
 
      Charge (e):
                      =   -0.0000
      Dipole Moment (Debye):
      Origin of the operator (Ang)=    0.0000    0.0000    0.0000
                   X=  7.9780E-05               Y=  6.1402E-06               Z=  1.5446E+00           Total=  1.5446E+00
      Quadrupole Moment (Debye*Ang):
      Origin of the operator (Ang)=    0.0000    0.0000    0.6447
                  XX= -1.0911E+01              XY=  2.1947E-04              XZ= -1.1512E-04              YY= -1.0911E+01
                  YZ= -9.0096E-06              ZZ= -1.3315E+01
      In traceless form (Debye*Ang)
                  XX=  1.2020E+00              XY=  3.2921E-04              XZ= -1.7268E-04              YY=  1.2023E+00
                  YZ= -1.3514E-05              ZZ= -2.4043E+00
--
 

      LoProp population analysis for root number:  4
      -----------------------------------------------
 
 
++    LoProp analysis:
      ----------------
 
 
 
  Input file to MOLDEN was generated!
 
 
++    Static properties:
      ------------------
 
 
      LoProp Charges per center
 

                   C1       O2    
      Nuclear      6.0000   8.0000
      Electronic  -6.0951  -7.9049
 
      Total       -0.0951   0.0951
--
 
 
      Natural Bond Order analysis for root number:  4
 
++    Natural Bond Order analysis
      ---------------------------
      Based on LoProp computed density
      -------------------------------------------------------------------------------------
      Atom A       Atom B       Bond Order
        C1           O2             0.768
      -------------------------------------------------------------------------------------
      NBO located      1.535 electrons involved in    1 bonds.
      NBO located      1.001 non-bonded electrons on atom C1        
      The remaining    4.883 electrons are to be considered as diffuse
--
 
--
 
      Von Neumann Entropy (Root   5) =  1.82127
 

      Mulliken population analysis for root number:  5
      -----------------------------------------------
 
 
++    Molecular charges:
      ------------------
 
      Mulliken charges per centre and basis function type
      ---------------------------------------------------
 
                C1      O2    
      1s       1.9989  1.9994
      2s       1.5323  1.7866
      2px      0.6737  1.3212
      2pz      0.8394  1.4564
      2py      0.6738  1.3213
      3s       0.0598  0.1007
      3px      0.0008 -0.0135
      3pz      0.0792  0.0117
      3py      0.0008 -0.0135
      4s       0.0055 -0.0013
      3d2+     0.0000  0.0000
      3d1+     0.0308  0.0116
      3d0      0.0345  0.0133
      3d1-     0.0308  0.0116
      3d2-     0.0000  0.0000
      4px      0.0042 -0.0018
      4pz     -0.0059 -0.0008
      4py      0.0042 -0.0018
      4d2+     0.0000 -0.0000
      4d1+    -0.0023  0.0017
      4d0      0.0124  0.0011
      4d1-    -0.0023  0.0017
      4d2-     0.0000 -0.0000
      5px      0.0010 -0.0002
      5pz      0.0006  0.0001
      5py      0.0010 -0.0002
      4f3+     0.0000  0.0000
      4f2+     0.0000  0.0000
      4f1+     0.0072  0.0011
      4f0      0.0039  0.0008
      4f1-     0.0072  0.0011
      4f2-     0.0000  0.0000
      4f3-     0.0000  0.0000
      Total    5.9915  8.0085
 
      N-E      0.0085 -0.0085
 
      Total electronic charge=   14.000000
 
      Total            charge=   -0.000000
--
 
 

      Expectation values of various properties for root number:  5
      -----------------------------------------------------------
 
 
++    Molecular properties:
      ---------------------
 
      Charge (e):
                      =   -0.0000
      Dipole Moment (Debye):
      Origin of the operator (Ang)=    0.0000    0.0000    0.0000
                   X=  8.3831E-05               Y=  6.7059E-06               Z=  1.4272E+00           Total=  1.4272E+00
      Quadrupole Moment (Debye*Ang):
      Origin of the operator (Ang)=    0.0000    0.0000    0.6447
                  XX= -1.0941E+01              XY= -1.1191E-05              XZ= -1.1619E-04              YY= -1.0941E+01
                  YZ= -9.3098E-06              ZZ= -1.3214E+01
      In traceless form (Debye*Ang)
                  XX=  1.1369E+00              XY= -1.6787E-05              XZ= -1.7429E-04              YY=  1.1365E+00
                  YZ= -1.3965E-05              ZZ= -2.2733E+00
--
 

      LoProp population analysis for root number:  5
      -----------------------------------------------
 
 
++    LoProp analysis:
      ----------------
 
 
 
  Input file to MOLDEN was generated!
 
 
++    Static properties:
      ------------------
 
 
      LoProp Charges per center
 

                   C1       O2    
      Nuclear      6.0000   8.0000
      Electronic  -6.0804  -7.9196
 
      Total       -0.0804   0.0804
--
 
 
      Natural Bond Order analysis for root number:  5
 
++    Natural Bond Order analysis
      ---------------------------
      Based on LoProp computed density
      -------------------------------------------------------------------------------------
      Atom A       Atom B       Bond Order
        C1           O2             0.759
      -------------------------------------------------------------------------------------
      NBO located      1.518 electrons involved in    1 bonds.
      NBO located      1.002 non-bonded electrons on atom C1        
      The remaining    4.890 electrons are to be considered as diffuse
--
 
--
 
      Von Neumann Entropy (Root   6) =  1.82127
 

      Mulliken population analysis for root number:  6
      -----------------------------------------------
 
 
++    Molecular charges:
      ------------------
 
      Mulliken charges per centre and basis function type
      ---------------------------------------------------
 
                C1      O2    
      1s       1.9989  1.9994
      2s       1.5323  1.7866
      2px      0.6738  1.3213
      2pz      0.8394  1.4564
      2py      0.6738  1.3213
      3s       0.0598  0.1007
      3px      0.0008 -0.0135
      3pz      0.0792  0.0117
      3py      0.0008 -0.0135
      4s       0.0055 -0.0013
      3d2+     0.0000  0.0000
      3d1+     0.0308  0.0116
      3d0      0.0345  0.0133
      3d1-     0.0308  0.0116
      3d2-     0.0000  0.0000
      4px      0.0042 -0.0018
      4pz     -0.0059 -0.0008
      4py      0.0042 -0.0018
      4d2+     0.0000 -0.0000
      4d1+    -0.0023  0.0017
      4d0      0.0124  0.0011
      4d1-    -0.0023  0.0017
      4d2-     0.0000 -0.0000
      5px      0.0010 -0.0002
      5pz      0.0006  0.0001
      5py      0.0010 -0.0002
      4f3+     0.0000  0.0000
      4f2+     0.0000  0.0000
      4f1+     0.0072  0.0011
      4f0      0.0039  0.0008
      4f1-     0.0072  0.0011
      4f2-     0.0000  0.0000
      4f3-     0.0000  0.0000
      Total    5.9915  8.0085
 
      N-E      0.0085 -0.0085
 
      Total electronic charge=   14.000000
 
      Total            charge=   -0.000000
--
 
 

      Expectation values of various properties for root number:  6
      -----------------------------------------------------------
 
 
++    Molecular properties:
      ---------------------
 
      Charge (e):
                      =   -0.0000
      Dipole Moment (Debye):
      Origin of the operator (Ang)=    0.0000    0.0000    0.0000
                   X=  8.3751E-05               Y=  6.7771E-06               Z=  1.4272E+00           Total=  1.4272E+00
      Quadrupole Moment (Debye*Ang):
      Origin of the operator (Ang)=    0.0000    0.0000    0.6447
                  XX= -1.0941E+01              XY= -1.4790E-04              XZ= -1.1614E-04              YY= -1.0941E+01
                  YZ= -9.4079E-06              ZZ= -1.3214E+01
      In traceless form (Debye*Ang)
                  XX=  1.1366E+00              XY= -2.2185E-04              XZ= -1.7421E-04              YY=  1.1367E+00
                  YZ= -1.4112E-05              ZZ= -2.2733E+00
--
 

      LoProp population analysis for root number:  6
      -----------------------------------------------
 
 
++    LoProp analysis:
      ----------------
 
 
 
  Input file to MOLDEN was generated!
 
 
++    Static properties:
      ------------------
 
 
      LoProp Charges per center
 

                   C1       O2    
      Nuclear      6.0000   8.0000
      Electronic  -6.0804  -7.9196
 
      Total       -0.0804   0.0804
--
 
 
      Natural Bond Order analysis for root number:  6
 
++    Natural Bond Order analysis
      ---------------------------
      Based on LoProp computed density
      -------------------------------------------------------------------------------------
      Atom A       Atom B       Bond Order
        C1           O2             0.759
      -------------------------------------------------------------------------------------
      NBO located      1.518 electrons involved in    1 bonds.
      NBO located      1.002 non-bonded electrons on atom C1        
      The remaining    4.890 electrons are to be considered as diffuse
--
 
--
 
      Von Neumann Entropy (Root   7) =  1.68670
 

      Mulliken population analysis for root number:  7
      -----------------------------------------------
 
 
++    Molecular charges:
      ------------------
 
      Mulliken charges per centre and basis function type
      ---------------------------------------------------
 
                C1      O2    
      1s       1.9989  1.9994
      2s       1.0717  1.7774
      2px      0.7046  1.2448
      2pz      0.7158  1.3947
      2py      0.7046  1.2448
      3s      -0.0519  1.0476
      3px     -0.0023  0.0014
      3pz      0.0592 -0.0190
      3py     -0.0023  0.0014
      4s      -0.0147  0.0004
      3d2+     0.0000  0.0000
      3d1+     0.0337  0.0167
      3d0      0.0207  0.0176
      3d1-     0.0337  0.0167
      3d2-     0.0000  0.0000
      4px      0.0008 -0.0003
      4pz     -0.0305 -0.0172
      4py      0.0008 -0.0003
      4d2+     0.0000  0.0000
      4d1+    -0.0015  0.0021
      4d0      0.0097  0.0040
      4d1-    -0.0015  0.0021
      4d2-     0.0000  0.0000
      5px      0.0002  0.0000
      5pz     -0.0032 -0.0029
      5py      0.0002  0.0000
      4f3+     0.0000  0.0000
      4f2+     0.0000  0.0000
      4f1+     0.0072  0.0017
      4f0      0.0029  0.0010
      4f1-     0.0072  0.0017
      4f2-     0.0000  0.0000
      4f3-     0.0000  0.0000
      Total    5.2641  8.7359
 
      N-E      0.7359 -0.7359
 
      Total electronic charge=   14.000000
 
      Total            charge=   -0.000000
--
 
 

      Expectation values of various properties for root number:  7
      -----------------------------------------------------------
 
 
++    Molecular properties:
      ---------------------
 
      Charge (e):
                      =   -0.0000
      Dipole Moment (Debye):
      Origin of the operator (Ang)=    0.0000    0.0000    0.0000
                   X= -6.6314E-04               Y= -6.2535E-05               Z= -5.1169E+00           Total=  5.1169E+00
      Quadrupole Moment (Debye*Ang):
      Origin of the operator (Ang)=    0.0000    0.0000    0.6447
                  XX= -1.5587E+01              XY= -4.0344E-06              XZ= -6.4521E-05              YY= -1.5587E+01
                  YZ=  5.9912E-06              ZZ= -1.3849E+01
      In traceless form (Debye*Ang)
                  XX= -8.6905E-01              XY= -6.0516E-06              XZ= -9.6782E-05              YY= -8.6905E-01
                  YZ=  8.9868E-06              ZZ=  1.7381E+00
--
 

      LoProp population analysis for root number:  7
      -----------------------------------------------
 
 
++    LoProp analysis:
      ----------------
 
 
 
  Input file to MOLDEN was generated!
 
 
++    Static properties:
      ------------------
 
 
      LoProp Charges per center
 

                   C1       O2    
      Nuclear      6.0000   8.0000
      Electronic  -5.6774  -8.3226
 
      Total        0.3226  -0.3226
--
 
 
      Natural Bond Order analysis for root number:  7
 
++    Natural Bond Order analysis
      ---------------------------
      Based on LoProp computed density
      -------------------------------------------------------------------------------------
      Atom A       Atom B       Bond Order
      -------------------------------------------------------------------------------------
      NBO located      0.993 non-bonded electrons on atom C1        
      The remaining    6.086 electrons are to be considered as diffuse
--
 
--
 
      Von Neumann Entropy (Root   8) =  1.80753
 

      Mulliken population analysis for root number:  8
      -----------------------------------------------
 
 
++    Molecular charges:
      ------------------
 
      Mulliken charges per centre and basis function type
      ---------------------------------------------------
 
                C1      O2    
      1s       1.9989  1.9994
      2s       1.1337  1.7686
      2px      0.6470  1.3486
      2pz      0.6180  1.3095
      2py      0.6993  1.3777
      3s       0.0447  0.0017
      3px      0.1566  0.0008
      3pz      0.0652  0.0005
      3py      0.4349 -0.0025
      4s       0.0041 -0.0014
      3d2+     0.0000  0.0000
      3d1+     0.0353  0.0162
      3d0      0.0293  0.0136
      3d1-     0.0353  0.0179
      3d2-     0.0000  0.0000
      4px      0.0515 -0.0016
      4pz     -0.0038 -0.0028
      4py      0.1412 -0.0039
      4d2+     0.0000 -0.0000
      4d1+    -0.0017  0.0018
      4d0      0.0106  0.0011
      4d1-    -0.0017  0.0016
      4d2-     0.0000 -0.0000
      5px      0.0090 -0.0003
      5pz      0.0004 -0.0003
      5py      0.0246 -0.0009
      4f3+     0.0000  0.0000
      4f2+     0.0000  0.0000
      4f1+     0.0075  0.0016
      4f0      0.0034  0.0008
      4f1-     0.0074  0.0016
      4f2-     0.0000  0.0000
      4f3-     0.0000  0.0000
      Total    6.1508  7.8492
 
      N-E     -0.1508  0.1508
 
      Total electronic charge=   14.000000
 
      Total            charge=   -0.000000
--
 
 

      Expectation values of various properties for root number:  8
      -----------------------------------------------------------
 
 
++    Molecular properties:
      ---------------------
 
      Charge (e):
                      =   -0.0000
      Dipole Moment (Debye):
      Origin of the operator (Ang)=    0.0000    0.0000    0.0000
                   X=  4.6437E-04               Y=  7.3684E-04               Z=  3.5879E-01           Total=  3.5879E-01
      Quadrupole Moment (Debye*Ang):
      Origin of the operator (Ang)=    0.0000    0.0000    0.6447
                  XX= -1.5917E+01              XY= -4.2004E+00              XZ= -7.2280E-04              YY= -2.0323E+01
                  YZ= -1.1750E-03              ZZ= -1.3108E+01
      In traceless form (Debye*Ang)
                  XX=  7.9806E-01              XY= -6.3006E+00              XZ= -1.0842E-03              YY= -5.8102E+00
                  YZ= -1.7624E-03              ZZ=  5.0122E+00
--
 

      LoProp population analysis for root number:  8
      -----------------------------------------------
 
 
++    LoProp analysis:
      ----------------
 
 
 
  Input file to MOLDEN was generated!
 
 
++    Static properties:
      ------------------
 
 
      LoProp Charges per center
 

                   C1       O2    
      Nuclear      6.0000   8.0000
      Electronic  -6.0628  -7.9372
 
      Total       -0.0628   0.0628
--
 
 
      Natural Bond Order analysis for root number:  8
 
++    Natural Bond Order analysis
      ---------------------------
      Based on LoProp computed density
      -------------------------------------------------------------------------------------
      Atom A       Atom B       Bond Order
      -------------------------------------------------------------------------------------
      NBO located      0.996 non-bonded electrons on atom C1        
      NBO located      0.999 non-bonded electrons on atom O2        
      The remaining    5.704 electrons are to be considered as diffuse
--
 
--
 
      Von Neumann Entropy (Root   9) =  1.80755
 

      Mulliken population analysis for root number:  9
      -----------------------------------------------
 
 
++    Molecular charges:
      ------------------
 
      Mulliken charges per centre and basis function type
      ---------------------------------------------------
 
                C1      O2    
      1s       1.9989  1.9994
      2s       1.1337  1.7686
      2px      0.6994  1.3777
      2pz      0.6180  1.3095
      2py      0.6470  1.3486
      3s       0.0447  0.0017
      3px      0.4349 -0.0025
      3pz      0.0652  0.0005
      3py      0.1566  0.0008
      4s       0.0041 -0.0014
      3d2+     0.0000 -0.0000
      3d1+     0.0353  0.0179
      3d0      0.0293  0.0136
      3d1-     0.0353  0.0162
      3d2-     0.0000  0.0000
      4px      0.1412 -0.0039
      4pz     -0.0038 -0.0028
      4py      0.0515 -0.0016
      4d2+     0.0000 -0.0000
      4d1+    -0.0017  0.0016
      4d0      0.0106  0.0011
      4d1-    -0.0017  0.0018
      4d2-     0.0000 -0.0000
      5px      0.0246 -0.0009
      5pz      0.0004 -0.0003
      5py      0.0090 -0.0003
      4f3+     0.0000  0.0000
      4f2+     0.0000 -0.0000
      4f1+     0.0074  0.0016
      4f0      0.0034  0.0008
      4f1-     0.0075  0.0016
      4f2-     0.0000  0.0000
      4f3-     0.0000  0.0000
      Total    6.1508  7.8492
 
      N-E     -0.1508  0.1508
 
      Total electronic charge=   14.000000
 
      Total            charge=   -0.000000
--
 
 

      Expectation values of various properties for root number:  9
      -----------------------------------------------------------
 
 
++    Molecular properties:
      ---------------------
 
      Charge (e):
                      =   -0.0000
      Dipole Moment (Debye):
      Origin of the operator (Ang)=    0.0000    0.0000    0.0000
                   X=  1.0468E-03               Y= -6.1496E-04               Z=  3.5896E-01           Total=  3.5897E-01
      Quadrupole Moment (Debye*Ang):
      Origin of the operator (Ang)=    0.0000    0.0000    0.6447
                  XX= -2.0322E+01              XY=  4.2003E+00              XZ= -1.6501E-03              YY= -1.5917E+01
                  YZ=  9.8604E-04              ZZ= -1.3108E+01
      In traceless form (Debye*Ang)
                  XX= -5.8101E+00              XY=  6.3005E+00              XZ= -2.4751E-03              YY=  7.9809E-01
                  YZ=  1.4791E-03              ZZ=  5.0120E+00
--
 

      LoProp population analysis for root number:  9
      -----------------------------------------------
 
 
++    LoProp analysis:
      ----------------
 
 
 
  Input file to MOLDEN was generated!
 
 
++    Static properties:
      ------------------
 
 
      LoProp Charges per center
 

                   C1       O2    
      Nuclear      6.0000   8.0000
      Electronic  -6.0628  -7.9372
 
      Total       -0.0628   0.0628
--
 
 
      Natural Bond Order analysis for root number:  9
 
++    Natural Bond Order analysis
      ---------------------------
      Based on LoProp computed density
      -------------------------------------------------------------------------------------
      Atom A       Atom B       Bond Order
      -------------------------------------------------------------------------------------
      NBO located      0.996 non-bonded electrons on atom C1        
      The remaining    6.703 electrons are to be considered as diffuse
--
 
--
 
      Von Neumann Entropy (Root  10) =  1.81308
 

      Mulliken population analysis for root number: 10
      -----------------------------------------------
 
 
++    Molecular charges:
      ------------------
 
      Mulliken charges per centre and basis function type
      ---------------------------------------------------
 
                C1      O2    
      1s       1.9989  1.9994
      2s       1.5314  1.7587
      2px      0.3866  1.0662
      2pz      0.9110  1.4085
      2py      0.4576  1.3351
      3s      -0.0323  1.0082
      3px      0.0071 -0.0017
      3pz      0.0617 -0.0044
      3py     -0.0017  0.0022
      4s      -0.0114  0.0007
      3d2+     0.0000  0.0000
      3d1+     0.0271  0.0090
      3d0      0.0277  0.0155
      3d1-     0.0345  0.0119
      3d2-     0.0000  0.0000
      4px      0.0056 -0.0007
      4pz     -0.0294 -0.0139
      4py      0.0023 -0.0003
      4d2+     0.0000  0.0000
      4d1+    -0.0016  0.0012
      4d0      0.0097  0.0038
      4d1-    -0.0018  0.0015
      4d2-     0.0000  0.0000
      5px      0.0011 -0.0001
      5pz     -0.0028 -0.0022
      5py      0.0005  0.0000
      4f3+     0.0000  0.0000
      4f2+     0.0000  0.0000
      4f1+     0.0061  0.0009
      4f0      0.0036  0.0009
      4f1-     0.0076  0.0012
      4f2-     0.0000  0.0000
      4f3-     0.0000  0.0000
      Total    5.3988  8.6012
 
      N-E      0.6012 -0.6012
 
      Total electronic charge=   14.000000
 
      Total            charge=   -0.000000
--
 
 

      Expectation values of various properties for root number: 10
      -----------------------------------------------------------
 
 
++    Molecular properties:
      ---------------------
 
      Charge (e):
                      =   -0.0000
      Dipole Moment (Debye):
      Origin of the operator (Ang)=    0.0000    0.0000    0.0000
                   X= -2.3589E-04               Y= -4.0037E-05               Z= -2.2024E+00           Total=  2.2024E+00
      Quadrupole Moment (Debye*Ang):
      Origin of the operator (Ang)=    0.0000    0.0000    0.6447
                  XX= -1.5215E+01              XY= -1.5776E-01              XZ= -8.6305E-05              YY= -1.5397E+01
                  YZ=  2.8364E-05              ZZ= -1.6656E+01
      In traceless form (Debye*Ang)
                  XX=  8.1201E-01              XY= -2.3665E-01              XZ= -1.2946E-04              YY=  5.3816E-01
                  YZ=  4.2546E-05              ZZ= -1.3502E+00
--
 

      LoProp population analysis for root number: 10
      -----------------------------------------------
 
 
++    LoProp analysis:
      ----------------
 
 
 
  Input file to MOLDEN was generated!
 
 
++    Static properties:
      ------------------
 
 
      LoProp Charges per center
 

                   C1       O2    
      Nuclear      6.0000   8.0000
      Electronic  -5.8439  -8.1561
 
      Total        0.1561  -0.1561
--
 
 
      Natural Bond Order analysis for root number: 10
 
++    Natural Bond Order analysis
      ---------------------------
      Based on LoProp computed density
      -------------------------------------------------------------------------------------
      Atom A       Atom B       Bond Order
      -------------------------------------------------------------------------------------
      NBO located      0.993 non-bonded electrons on atom C1        
      NBO located      0.999 non-bonded electrons on atom O2        
      NBO located      0.938 non-bonded electrons on atom O2        
      The remaining    4.098 electrons are to be considered as diffuse
--
 
--
 
      Von Neumann Entropy (Root  11) =  1.81305
 

      Mulliken population analysis for root number: 11
      -----------------------------------------------
 
 
++    Molecular charges:
      ------------------
 
      Mulliken charges per centre and basis function type
      ---------------------------------------------------
 
                C1      O2    
      1s       1.9989  1.9994
[...]
      4pz     -0.0101 -0.0031
      4py      0.0598 -0.0037
      4d2+     0.0000 -0.0000
      4d1+    -0.0024  0.0015
      4d0      0.0108  0.0022
      4d1-    -0.0024  0.0015
      4d2-     0.0000 -0.0000
      5px      0.0108 -0.0007
      5pz     -0.0002 -0.0003
      5py      0.0108 -0.0007
      4f3+     0.0000  0.0000
      4f2+     0.0000  0.0000
      4f1+     0.0087  0.0010
      4f0      0.0039  0.0009
      4f1-     0.0087  0.0010
      4f2-     0.0000  0.0000
      4f3-     0.0000  0.0000
      Total    5.9994  8.0006
 
      N-E      0.0006 -0.0006
 
      Total electronic charge=   14.000000
 
      Total            charge=   -0.000000
--
 
 

      Expectation values of various properties for root number: 14
      -----------------------------------------------------------
 
 
++    Molecular properties:
      ---------------------
 
      Charge (e):
                      =   -0.0000
      Dipole Moment (Debye):
      Origin of the operator (Ang)=    0.0000    0.0000    0.0000
                   X=  1.9082E-04               Y=  1.3832E-05               Z=  1.8500E+00           Total=  1.8500E+00
      Quadrupole Moment (Debye*Ang):
      Origin of the operator (Ang)=    0.0000    0.0000    0.6447
                  XX= -1.6453E+01              XY=  4.3087E-04              XZ= -7.1132E-04              YY= -1.6453E+01
                  YZ= -5.5467E-05              ZZ= -1.6078E+01
      In traceless form (Debye*Ang)
                  XX= -1.8780E-01              XY=  6.4630E-04              XZ= -1.0670E-03              YY= -1.8714E-01
                  YZ= -8.3200E-05              ZZ=  3.7494E-01
--
 

      LoProp population analysis for root number: 14
      -----------------------------------------------
 
 
++    LoProp analysis:
      ----------------
 
 
 
  Input file to MOLDEN was generated!
 
 
++    Static properties:
      ------------------
 
 
      LoProp Charges per center
 

                   C1       O2    
      Nuclear      6.0000   8.0000
      Electronic  -6.1158  -7.8842
 
      Total       -0.1158   0.1158
--
 
 
      Natural Bond Order analysis for root number: 14
 
++    Natural Bond Order analysis
      ---------------------------
      Based on LoProp computed density
      -------------------------------------------------------------------------------------
      Atom A       Atom B       Bond Order
      -------------------------------------------------------------------------------------
      NBO located      0.995 non-bonded electrons on atom C1        
      The remaining    6.322 electrons are to be considered as diffuse
--
 
--
 
      Von Neumann Entropy (Root  15) =  2.13588
 

      Mulliken population analysis for root number: 15
      -----------------------------------------------
 
 
++    Molecular charges:
      ------------------
 
      Mulliken charges per centre and basis function type
      ---------------------------------------------------
 
                C1      O2    
      1s       1.9989  1.9994
      2s       1.5696  1.7843
      2px      0.3259  1.1837
      2pz      0.8426  1.4837
      2py      0.3260  1.1838
      3s       0.0575  0.0416
      3px      0.3488 -0.0009
      3pz      0.0761  0.0114
      3py      0.3490 -0.0009
      4s       0.0054 -0.0009
      3d2+     0.0000 -0.0000
      3d1+     0.0302  0.0102
      3d0      0.0343  0.0130
      3d1-     0.0302  0.0102
      3d2-     0.0000  0.0000
      4px      0.1158 -0.0034
      4pz     -0.0051 -0.0036
      4py      0.1159 -0.0034
      4d2+     0.0000 -0.0000
      4d1+    -0.0016  0.0008
      4d0      0.0121  0.0016
      4d1-    -0.0016  0.0008
      4d2-     0.0000 -0.0000
      5px      0.0203 -0.0008
      5pz      0.0003 -0.0003
      5py      0.0203 -0.0008
      4f3+     0.0000  0.0000
      4f2+     0.0000 -0.0000
      4f1+     0.0065  0.0009
      4f0      0.0038  0.0008
      4f1-     0.0065  0.0009
      4f2-     0.0000  0.0000
      4f3-     0.0000  0.0000
      Total    6.2878  7.7122
 
      N-E     -0.2878  0.2878
 
      Total electronic charge=   14.000000
 
      Total            charge=   -0.000000
--
 
 

      Expectation values of various properties for root number: 15
      -----------------------------------------------------------
 
 
++    Molecular properties:
      ---------------------
 
      Charge (e):
                      =   -0.0000
      Dipole Moment (Debye):
      Origin of the operator (Ang)=    0.0000    0.0000    0.0000
                   X=  6.2213E-04               Y=  4.9842E-05               Z=  2.6703E+00           Total=  2.6703E+00
      Quadrupole Moment (Debye*Ang):
      Origin of the operator (Ang)=    0.0000    0.0000    0.6447
                  XX= -1.9667E+01              XY= -3.1418E-03              XZ= -1.4263E-03              YY= -1.9669E+01
                  YZ= -1.1359E-04              ZZ= -1.7260E+01
      In traceless form (Debye*Ang)
                  XX= -1.2024E+00              XY= -4.7128E-03              XZ= -2.1394E-03              YY= -1.2059E+00
                  YZ= -1.7039E-04              ZZ=  2.4083E+00
--
 

      LoProp population analysis for root number: 15
      -----------------------------------------------
 
 
++    LoProp analysis:
      ----------------
 
 
 
  Input file to MOLDEN was generated!
 
 
++    Static properties:
      ------------------
 
 
      LoProp Charges per center
 

                   C1       O2    
      Nuclear      6.0000   8.0000
      Electronic  -6.2089  -7.7911
 
      Total       -0.2089   0.2089
--
 
 
      Natural Bond Order analysis for root number: 15
 
++    Natural Bond Order analysis
      ---------------------------
      Based on LoProp computed density
      -------------------------------------------------------------------------------------
      Atom A       Atom B       Bond Order
        C1           O2             0.745
      -------------------------------------------------------------------------------------
      NBO located      1.489 electrons involved in    1 bonds.
      NBO located      1.002 non-bonded electrons on atom C1        
      The remaining    5.069 electrons are to be considered as diffuse
--
 
--
 
      Von Neumann Entropy (Root  16) =  2.13588
 

      Mulliken population analysis for root number: 16
      -----------------------------------------------
 
 
++    Molecular charges:
      ------------------
 
      Mulliken charges per centre and basis function type
      ---------------------------------------------------
 
                C1      O2    
      1s       1.9989  1.9994
      2s       1.5696  1.7843
      2px      0.3259  1.1838
      2pz      0.8426  1.4837
      2py      0.3259  1.1838
      3s       0.0575  0.0416
      3px      0.3489 -0.0009
      3pz      0.0761  0.0114
      3py      0.3489 -0.0009
      4s       0.0054 -0.0009
      3d2+     0.0000 -0.0000
      3d1+     0.0302  0.0102
      3d0      0.0343  0.0130
      3d1-     0.0302  0.0102
      3d2-     0.0000  0.0000
      4px      0.1159 -0.0034
      4pz     -0.0051 -0.0036
      4py      0.1159 -0.0034
      4d2+     0.0000 -0.0000
      4d1+    -0.0016  0.0008
      4d0      0.0121  0.0016
      4d1-    -0.0016  0.0008
      4d2-     0.0000 -0.0000
      5px      0.0203 -0.0008
      5pz      0.0003 -0.0003
      5py      0.0203 -0.0008
      4f3+     0.0000  0.0000
      4f2+     0.0000 -0.0000
      4f1+     0.0065  0.0009
      4f0      0.0038  0.0008
      4f1-     0.0065  0.0009
      4f2-     0.0000  0.0000
      4f3-     0.0000  0.0000
      Total    6.2878  7.7122
 
      N-E     -0.2878  0.2878
 
      Total electronic charge=   14.000000
 
      Total            charge=   -0.000000
--
 
 

      Expectation values of various properties for root number: 16
      -----------------------------------------------------------
 
 
++    Molecular properties:
      ---------------------
 
      Charge (e):
                      =   -0.0000
      Dipole Moment (Debye):
      Origin of the operator (Ang)=    0.0000    0.0000    0.0000
                   X=  6.2162E-04               Y=  4.8940E-05               Z=  2.6703E+00           Total=  2.6703E+00
      Quadrupole Moment (Debye*Ang):
      Origin of the operator (Ang)=    0.0000    0.0000    0.6447
                  XX= -1.9667E+01              XY= -5.0680E-04              XZ= -1.4264E-03              YY= -1.9669E+01
                  YZ= -1.1309E-04              ZZ= -1.7260E+01
      In traceless form (Debye*Ang)
                  XX= -1.2030E+00              XY= -7.6020E-04              XZ= -2.1396E-03              YY= -1.2053E+00
                  YZ= -1.6963E-04              ZZ=  2.4083E+00
--
 

      LoProp population analysis for root number: 16
      -----------------------------------------------
 
 
++    LoProp analysis:
      ----------------
 
 
 
  Input file to MOLDEN was generated!
 
 
++    Static properties:
      ------------------
 
 
      LoProp Charges per center
 

                   C1       O2    
      Nuclear      6.0000   8.0000
      Electronic  -6.2089  -7.7911
 
      Total       -0.2089   0.2089
--
 
 
      Natural Bond Order analysis for root number: 16
 
++    Natural Bond Order analysis
      ---------------------------
      Based on LoProp computed density
      -------------------------------------------------------------------------------------
      Atom A       Atom B       Bond Order
        C1           O2             0.745
      -------------------------------------------------------------------------------------
      NBO located      1.489 electrons involved in    1 bonds.
      NBO located      1.002 non-bonded electrons on atom C1        
      The remaining    5.069 electrons are to be considered as diffuse
--
 
--
 
 
  Input file to MOLDEN was generated!
 
 
  Input file to MOLDEN was generated!
 
 
  Input file to MOLDEN was generated!
 
 
  Input file to MOLDEN was generated!
 
 
  Input file to MOLDEN was generated!
 
 
  Input file to MOLDEN was generated!
 
 
  Input file to MOLDEN was generated!
 
 
  Input file to MOLDEN was generated!
 
 
  Input file to MOLDEN was generated!
 
 
  Input file to MOLDEN was generated!
 
 
  Input file to MOLDEN was generated!
 
 
  Input file to MOLDEN was generated!
 
 
  Input file to MOLDEN was generated!
 
 
  Input file to MOLDEN was generated!
 
 
  Input file to MOLDEN was generated!
 
 
  Input file to MOLDEN was generated!
 
 
  Input file to MOLDEN was generated!
 
      Average orbitals are written to the RASORB file
      Natural orbitals for root   1 are written to the RASORB.1 file
      Natural orbitals for root   2 are written to the RASORB.2 file
      Natural orbitals for root   3 are written to the RASORB.3 file
      Natural orbitals for root   4 are written to the RASORB.4 file
      Natural orbitals for root   5 are written to the RASORB.5 file
      Natural orbitals for root   6 are written to the RASORB.6 file
      Natural orbitals for root   7 are written to the RASORB.7 file
      Natural orbitals for root   8 are written to the RASORB.8 file
      Natural orbitals for root   9 are written to the RASORB.9 file
      Natural orbitals for root  10 are written to the RASORB.10 file
      Natural orbitals for root  11 are written to the RASORB.11 file
      Natural orbitals for root  12 are written to the RASORB.12 file
      Natural orbitals for root  13 are written to the RASORB.13 file
      Natural orbitals for root  14 are written to the RASORB.14 file
      Natural orbitals for root  15 are written to the RASORB.15 file
      Natural orbitals for root  16 are written to the RASORB.16 file
      Spin density orbitals for root   1 are written to the SPDORB.1 file
      Spin density orbitals for root   2 are written to the SPDORB.2 file
      Spin density orbitals for root   3 are written to the SPDORB.3 file
      Spin density orbitals for root   4 are written to the SPDORB.4 file
      Spin density orbitals for root   5 are written to the SPDORB.5 file
      Spin density orbitals for root   6 are written to the SPDORB.6 file
      Spin density orbitals for root   7 are written to the SPDORB.7 file
      Spin density orbitals for root   8 are written to the SPDORB.8 file
      Spin density orbitals for root   9 are written to the SPDORB.9 file
      Spin density orbitals for root  10 are written to the SPDORB.10 file
      Spin density orbitals for root  11 are written to the SPDORB.11 file
      Spin density orbitals for root  12 are written to the SPDORB.12 file
      Spin density orbitals for root  13 are written to the SPDORB.13 file
      Spin density orbitals for root  14 are written to the SPDORB.14 file
      Spin density orbitals for root  15 are written to the SPDORB.15 file
      Spin density orbitals for root  16 are written to the SPDORB.16 file
 
 ###############################################################################
 ###############################################################################
 ###                                                                         ###
 ###                                                                         ###
 ###    WARNING: RunFile label Unique Atom Name                              ###
 ###    was used       65 times                                              ###
 ###                                                                         ###
 ###                                                                         ###
 ###############################################################################
 ###############################################################################
 ###############################################################################
 ###############################################################################
 ###                                                                         ###
 ###                                                                         ###
 ###    WARNING: RunFile label LP_L                                          ###
 ###    was used       48 times                                              ###
 ###                                                                         ###
 ###                                                                         ###
 ###############################################################################
 ###############################################################################
 ###############################################################################
 ###############################################################################
 ###                                                                         ###
 ###                                                                         ###
 ###    WARNING: RunFile label BirthCertificate                              ###
 ###    was used      104 times                                              ###
 ###                                                                         ###
 ###                                                                         ###
 ###############################################################################
 ###############################################################################
 ###############################################################################
 ###############################################################################
 ###                                                                         ###
 ###                                                                         ###
 ###    WARNING: RunFile label Unique Coordinat                              ###
 ###    was used       81 times                                              ###
 ###                                                                         ###
 ###                                                                         ###
 ###############################################################################
 ###############################################################################
 ###############################################################################
 ###############################################################################
 ###                                                                         ###
 ###                                                                         ###
 ###    WARNING: RunFile label Center Index                                  ###
 ###    was used       64 times                                              ###
 ###                                                                         ###
 ###                                                                         ###
 ###############################################################################
 ###############################################################################
 ###############################################################################
 ###############################################################################
 ###                                                                         ###
 ###                                                                         ###
 ###    WARNING: RunFile label nBas                                          ###
 ###    was used      119 times                                              ###
 ###                                                                         ###
 ###                                                                         ###
 ###############################################################################
 ###############################################################################
 ###############################################################################
 ###############################################################################
 ###                                                                         ###
 ###                                                                         ###
 ###    WARNING: RunFile label nOrb                                          ###
 ###    was used       49 times                                              ###
 ###                                                                         ###
 ###                                                                         ###
 ###############################################################################
 ###############################################################################
--- Stop Module: rasscf at Thu Jul 14 14:00:02 2022 /rc=_RC_ALL_IS_WELL_ ---
*** files: MOLCAS.LprOrb MOLCAS.rasscf.molden MOLCAS.rasscf.molden.1 MOLCAS.rasscf.molden.10 MOLCAS.rasscf.molden.11 MOLCAS.rasscf.molden.12 MOLCAS.rasscf.molden.13
           MOLCAS.rasscf.molden.14 MOLCAS.rasscf.molden.15 MOLCAS.rasscf.molden.16 MOLCAS.rasscf.molden.2 MOLCAS.rasscf.molden.3 MOLCAS.rasscf.molden.4 MOLCAS.rasscf.molden.5
           MOLCAS.rasscf.molden.6 MOLCAS.rasscf.molden.7 MOLCAS.rasscf.molden.8 MOLCAS.rasscf.molden.9 MOLCAS.LoProp.molden MOLCAS.RasOrb MOLCAS.RasOrb.1 MOLCAS.RasOrb.10
           MOLCAS.RasOrb.11 MOLCAS.RasOrb.12 MOLCAS.RasOrb.13 MOLCAS.RasOrb.14 MOLCAS.RasOrb.15 MOLCAS.RasOrb.16 MOLCAS.RasOrb.2 MOLCAS.RasOrb.3 MOLCAS.RasOrb.4 MOLCAS.RasOrb.5
           MOLCAS.RasOrb.6 MOLCAS.RasOrb.7 MOLCAS.RasOrb.8 MOLCAS.RasOrb.9 MOLCAS.rasscf.h5 MOLCAS.SpdOrb.1 MOLCAS.SpdOrb.10 MOLCAS.SpdOrb.11 MOLCAS.SpdOrb.12 MOLCAS.SpdOrb.13
           MOLCAS.SpdOrb.14 MOLCAS.SpdOrb.15 MOLCAS.SpdOrb.16 MOLCAS.SpdOrb.2 MOLCAS.SpdOrb.3 MOLCAS.SpdOrb.4 MOLCAS.SpdOrb.5 MOLCAS.SpdOrb.6 MOLCAS.SpdOrb.7 MOLCAS.SpdOrb.8
           MOLCAS.SpdOrb.9 xmldump
    saved to directory /projects/academic/cyberwksp21/Students/jstetzler/Project/OpenMOLCAS_PEC_Calcuation/More_Excited_States/Geom_1.128300
--- Module rasscf spent 9 minutes 4 seconds ---

.##################.
.# Happy landing! #.
.##################.

    Timing: Wall=544.15 User=454.90 System=21.80
