   This run of MOLCAS is using the pymolcas driver

                             OPE
                             OPE          NMOL  CASOP  ENMOLC A   SO
                 OPE        NMOLC        AS  OP EN  MO LC     AS  OP
                OPENM       OL CA        SO  PE NM  OL CA     SOP EN
                OP EN      MO   LC       AS  OP ENMOL  CASO   PENMOL
                OP  EN     MO   LC       AS  OP EN     MO     LC ASO
               OP   E  NMOL  C  AS       OP  EN MO     LC     AS  OP
               OP  E   NMO   LC AS        OPEN  MO     LCASOP EN   M
               O  PEN   MO  LCA  SO
            OPE   NMO   L   CAS    OP
        OPENMOL  CASOP     ENMOL   CASOPE
     OPENMOLCA   SOPENMOLCASOPEN   MOLCASOPE
    OPENMOLCAS   OP           EN   MOL    CAS
    OPENMOLCAS       OP  ENM        O     LCA
    OPENMOLCAS    OPEN  MOLCASO     P  E  NMO
    OPENMOLCAS     OP               E  N  MOL
    OPENMOLCA   SO           PENM   O  L  CAS    OPEN    MO    LCAS
    OPENMOLCA   SOP           ENM   O  L  CAS   OP  EN  MOLC  AS   O
    OPENMOLCA   SOPE           NM      O  LCA   S      OP  EN MO
    OPENMOLC                AS         O  PEN   M      OL  CA  SOPE
    OPENMO        LCASOPE  NMOL        C  ASO   P      ENMOLC     AS
    OPE     NMO      LCA  SO     P     E   NM   OL  CA SO  PE N   MO
          OPENMOLCA            SOPE   NMO        LCAS  O    P  ENMO
     OPENMOLCASOPENMOLCASOPENMOLCASOPENMOLCA
        OPENMOLCASOPENMOLCASOPENMOLCASOPE
            OPENMOLCASOPENMOLCASOPENM
               OPENMOLCASOPENMOLCA        version:
                   OPENMOLCASO
                       OPE                tag:

 OpenMolcas is free software; you can redistribute it and/or modify it
 under the terms of the GNU Lesser General Public License version 2.1.
 OpenMolcas is distributed in the hope that it will be useful, but it
 is provided "as is" and without any express or implied warranties.
 For more details see the full text of the license in the file
 LICENSE or in <http://www.gnu.org/licenses/>.

                 Copyright (C) The OpenMolcas Authors
           For the author list and the recommended citation,
                   consult the file CONTRIBUTORS.md

           *************************************************
           * pymolcas version py2.18                       *
           *   build 603b35e74725da5e9c3ba4c5da34d86f      *
           *   (after the EMIL interpreter by V. Veryazov) *
           *************************************************

configuration info
------------------
Host name: manganese.itc.univie.ac.at (Linux)
C Compiler ID: Intel
C flags: -std=gnu99
Fortran Compiler ID: Intel
Fortran flags: -fpp -i8 -r8 -heap-arrays
Definitions: _MOLCAS_;_I8_;_LINUX_
Parallel: OFF (GA=OFF)


   -------------------------------------------------------------------------------------------------------------------------------------------------
  |
  |           Project: MOLCAS
  |    Submitted from: /projects/academic/cyberwksp21/Students/jstetzler/Project/OpenMOLCAS_PEC_Calcuation/More_Excited_States/Geom_1.128300
  |      Scratch area: /projects/academic/cyberwksp21/Students/jstetzler/Project/OpenMOLCAS_PEC_Calcuation/More_Excited_States/Geom_1.128300/scratch
  |   Save outputs to: /projects/academic/cyberwksp21/Students/jstetzler/Project/OpenMOLCAS_PEC_Calcuation/More_Excited_States/Geom_1.128300
  |            Molcas: /projects/academic/cyberwksp21/Software/openmolcas_V21.10
  |
  | Scratch area is NOT empty
  |
  |    MOLCAS_DRIVER = /projects/academic/cyberwksp21/Software/openmolcas_V21.10/bin/pymolcas
  |    MOLCAS_MOLDEN = ON
  |    MOLCAS_NPROCS = 1
  |    MOLCAS_SOURCE = /projects/academic/cyberwksp21/Software/openmolcas_V21.10/
  | MOLCAS_STRUCTURE = 0
  |
   -------------------------------------------------------------------------------------------------------------------------------------------------

++ ---------   Input file   ---------

&CASPT2
Multistate=16 1 2 3 4 5 6 7 8 9 10 11 12 13 14 15 16
imaginary = 0.1

-- ----------------------------------

*** symbolic link created: INPORB -> MOLCAS.RasOrb
--- Start Module: caspt2 at Fri Jul 15 18:39:55 2022 ---
 
()()()()()()()()()()()()()()()()()()()()()()()()()()()()()()()()()()()()()()()()()()()()()()()()()()

                                              &CASPT2

                                   only a single process is used
                       available to each process: 2.0 GB of memory, 1 thread?
                                             pid: 18480
()()()()()()()()()()()()()()()()()()()()()()()()()()()()()()()()()()()()()()()()()()()()()()()()()()
 
 
++    Wave function specifications:
      -----------------------------
 
      Number of closed shell electrons           0
      Number of electrons in active shells      10
      Max number of holes in RAS1 space          0
      Max number of electrons in RAS3 space      0
      Number of inactive orbitals                0
      Number of active orbitals                 11
      Number of secondary orbitals              53
      Spin quantum number                      0.0
      State symmetry                             1
      Number of CSFs                         60984
      Number of root(s) available               16
      Root passed to geometry opt.              16
      A file JOBMIX will be created
      This is a MULTI-STATE CASSCF reference
      Number of CI roots used                   16
      These are:                                 1   2   3   4   5   6   7   8   9  10
                                                11  12  13  14  15  16
      Off-diagonal elements of Heff are computed
--
 
++    Orbital specifications:
      -----------------------
 
      Symmetry species                           1
                                                 a
      Frozen orbitals                            2
      Inactive orbitals                          0
      Active orbitals                           11
      Secondary orbitals                        53
      Deleted orbitals                           0
      Number of basis functions                 66
--
 
++    CASPT2 specifications:
      ----------------------
 
      Type of calculation                        MS-CASPT2
      Fock operator                              state-specific
      IPEA shift                                 0.25
      Real shift                                 0.00
      Imaginary shift                            0.10
      The input orbitals will be transformed to quasi-canonical
--
 
--------------------------------------------------------------------------------
 Estimated memory requirements:
  POLY3 :                 12634316
  RHS:                     1285724
  SIGMA :                   627784
  PRPCTL:                        0
 Available workspace:    224868618
 
++ CASPT2 computation for group   1
 
********************************************************************************
 Multi-State initialization phase begins for group   1
--------------------------------------------------------------------------------
********************************************************************************
 Compute H0 matrices for state    1
--------------------------------------------------------------------------------
--------------------------------------------------------------------------------
 H0 matrices have been computed.
 
********************************************************************************
  CASPT2 EQUATION SOLUTION
--------------------------------------------------------------------------------
 
  Total nr of CASPT2 parameters:
   Before reduction:      240779
   After  reduction:      239613
 
 The contributions to the second order correlation energy in atomic units.
-----------------------------------------------------------------------------------------------------------------------------
  IT.      VJTU        VJTI        ATVX        AIVX        VJAI        BVAT        BJAT        BJAI        TOTAL       RNORM  
-----------------------------------------------------------------------------------------------------------------------------
   1     0.000000    0.000000   -0.097197    0.000000    0.000000   -0.141635    0.000000    0.000000   -0.238831    0.005917
   2     0.000000    0.000000   -0.097673    0.000000    0.000000   -0.141745    0.000000    0.000000   -0.239418    0.000632
   3     0.000000    0.000000   -0.097688    0.000000    0.000000   -0.141758    0.000000    0.000000   -0.239447    0.000075
   4     0.000000    0.000000   -0.097684    0.000000    0.000000   -0.141757    0.000000    0.000000   -0.239441    0.000008
-----------------------------------------------------------------------------------------------------------------------------
 
  FINAL CASPT2 RESULT:
 
      Reference energy:        -112.9723285214
      E2 (Non-variational):      -0.2394410957
      Shift correction:          -0.0001898013
      E2 (Variational):          -0.2396308970
      Total energy:            -113.2119594183
      Residual norm:              0.0000009992
      Reference weight:           0.94823
 
      Contributions to the CASPT2 correlation energy
      Active & Virtual Only:         -0.2394410957
      One Inactive Excited:           0.0000000000
      Two Inactive Excited:           0.0000000000
 
 
++ Denominators, etc.
--------------------------------------------------------------------------------------------------------------
 Report on small energy denominators, large coefficients, and large energy contributions.
CASE  SYMM ACTIVE-MIX  NON-ACTIVE INDICES          DENOMINATOR     RHS VALUE       COEFFICIENT     CONTRIBUTION
ATVX     1  Mu1.0001  Se1.014                       0.59132765     -0.02001916      0.02990974     -0.00059877
ATVX     1  Mu1.0003  Se1.016                       1.01234250     -0.03352291      0.02867503     -0.00096127
ATVX     1  Mu1.0002  Se1.017                       1.01234224     -0.03352212      0.02867433     -0.00096122
--
 
   (Skipping property calculation,
    use PROP keyword to activate)
--
 
++ CASPT2 computation for group   2
 
********************************************************************************
 Multi-State initialization phase begins for group   2
--------------------------------------------------------------------------------
********************************************************************************
 Compute H0 matrices for state    2
--------------------------------------------------------------------------------
--------------------------------------------------------------------------------
 H0 matrices have been computed.
 
********************************************************************************
  CASPT2 EQUATION SOLUTION
--------------------------------------------------------------------------------
 
  Total nr of CASPT2 parameters:
   Before reduction:      240779
   After  reduction:      240196
 
 The contributions to the second order correlation energy in atomic units.
-----------------------------------------------------------------------------------------------------------------------------
  IT.      VJTU        VJTI        ATVX        AIVX        VJAI        BVAT        BJAT        BJAI        TOTAL       RNORM  
-----------------------------------------------------------------------------------------------------------------------------
   1     0.000000    0.000000   -0.115261    0.000000    0.000000   -0.141860    0.000000    0.000000   -0.257121    0.006109
   2     0.000000    0.000000   -0.115844    0.000000    0.000000   -0.141971    0.000000    0.000000   -0.257815    0.000671
   3     0.000000    0.000000   -0.115867    0.000000    0.000000   -0.141984    0.000000    0.000000   -0.257851    0.000081
   4     0.000000    0.000000   -0.115862    0.000000    0.000000   -0.141983    0.000000    0.000000   -0.257845    0.000010
   5     0.000000    0.000000   -0.115861    0.000000    0.000000   -0.141983    0.000000    0.000000   -0.257845    0.000001
-----------------------------------------------------------------------------------------------------------------------------
 
  FINAL CASPT2 RESULT:
 
      Reference energy:        -112.6419875497
      E2 (Non-variational):      -0.2578447524
      Shift correction:          -0.0005405926
      E2 (Variational):          -0.2583853450
      Total energy:            -112.9003728948
      Residual norm:              0.0000001834
      Reference weight:           0.92846
 
      Contributions to the CASPT2 correlation energy
      Active & Virtual Only:         -0.2578447524
      One Inactive Excited:           0.0000000000
      Two Inactive Excited:           0.0000000000
 
 
++ Denominators, etc.
--------------------------------------------------------------------------------------------------------------
 Report on small energy denominators, large coefficients, and large energy contributions.
CASE  SYMM ACTIVE-MIX  NON-ACTIVE INDICES          DENOMINATOR     RHS VALUE       COEFFICIENT     CONTRIBUTION
ATVX     1  Mu1.0001  Se1.014                       0.09950568     -0.00000479      0.00002244     -0.00000000
ATVX     1  Mu1.0011  Se1.014                       0.81267390      0.03010322     -0.03563796     -0.00107282
ATVX     1  Mu1.0003  Se1.015                       0.71085162      0.02479831     -0.03368472     -0.00083532
ATVX     1  Mu1.0001  Se1.016                       0.42462960      0.04725181     -0.10180195     -0.00481033
ATVX     1  Mu1.0002  Se1.018                       0.89015388     -0.02615600      0.02928689     -0.00076603
ATVX     1  Mu1.0006  Se1.018                       1.15599072     -0.03575139      0.03145210     -0.00112446
ATVX     1  Mu1.0003  Se1.019                       0.90541150      0.03714670     -0.04127148     -0.00153310
ATVX     1  Mu1.0004  Se1.019                       0.93685134     -0.02434682      0.02589855     -0.00063055
ATVX     1  Mu1.0003  Se1.020                       1.09713206      0.02849072     -0.02696369     -0.00076821
ATVX     1  Mu1.0011  Se1.023                       1.58051060      0.04141313     -0.02522476     -0.00104464
ATVX     1  Mu1.0003  Se1.026                       1.44346187     -0.03817168      0.02663867     -0.00101684
--
 
   (Skipping property calculation,
    use PROP keyword to activate)
--
 
++ CASPT2 computation for group   3
 
********************************************************************************
 Multi-State initialization phase begins for group   3
--------------------------------------------------------------------------------
********************************************************************************
 Compute H0 matrices for state    3
--------------------------------------------------------------------------------
--------------------------------------------------------------------------------
 H0 matrices have been computed.
 
********************************************************************************
  CASPT2 EQUATION SOLUTION
--------------------------------------------------------------------------------
 
  Total nr of CASPT2 parameters:
   Before reduction:      240779
   After  reduction:      240196
 
 The contributions to the second order correlation energy in atomic units.
-----------------------------------------------------------------------------------------------------------------------------
  IT.      VJTU        VJTI        ATVX        AIVX        VJAI        BVAT        BJAT        BJAI        TOTAL       RNORM  
-----------------------------------------------------------------------------------------------------------------------------
   1     0.000000    0.000000   -0.115262    0.000000    0.000000   -0.141861    0.000000    0.000000   -0.257123    0.006109
   2     0.000000    0.000000   -0.115845    0.000000    0.000000   -0.141972    0.000000    0.000000   -0.257817    0.000671
   3     0.000000    0.000000   -0.115868    0.000000    0.000000   -0.141985    0.000000    0.000000   -0.257852    0.000081
   4     0.000000    0.000000   -0.115863    0.000000    0.000000   -0.141984    0.000000    0.000000   -0.257847    0.000010
   5     0.000000    0.000000   -0.115862    0.000000    0.000000   -0.141984    0.000000    0.000000   -0.257846    0.000001
-----------------------------------------------------------------------------------------------------------------------------
 
  FINAL CASPT2 RESULT:
 
      Reference energy:        -112.6419864529
      E2 (Non-variational):      -0.2578462229
      Shift correction:          -0.0005406272
      E2 (Variational):          -0.2583868501
      Total energy:            -112.9003733030
      Residual norm:              0.0000001834
      Reference weight:           0.92846
 
      Contributions to the CASPT2 correlation energy
      Active & Virtual Only:         -0.2578462229
      One Inactive Excited:           0.0000000000
      Two Inactive Excited:           0.0000000000
 
 
++ Denominators, etc.
--------------------------------------------------------------------------------------------------------------
 Report on small energy denominators, large coefficients, and large energy contributions.
CASE  SYMM ACTIVE-MIX  NON-ACTIVE INDICES          DENOMINATOR     RHS VALUE       COEFFICIENT     CONTRIBUTION
ATVX     1  Mu1.0001  Se1.014                       0.09950330      0.00000348     -0.00001631     -0.00000000
ATVX     1  Mu1.0011  Se1.014                       0.81266662      0.03010256     -0.03563751     -0.00107278
ATVX     1  Mu1.0003  Se1.015                       0.71085081     -0.02479800      0.03368435     -0.00083530
ATVX     1  Mu1.0001  Se1.017                       0.42462765     -0.04725479      0.10180884     -0.00481096
ATVX     1  Mu1.0002  Se1.018                       0.89015189     -0.02615606      0.02928705     -0.00076603
ATVX     1  Mu1.0006  Se1.018                       1.15598743      0.03575118     -0.03145192     -0.00112444
ATVX     1  Mu1.0003  Se1.019                       0.90541098      0.03714576     -0.04127053     -0.00153303
ATVX     1  Mu1.0004  Se1.019                       0.93684993     -0.02434676      0.02589854     -0.00063055
ATVX     1  Mu1.0003  Se1.020                       1.09713123     -0.02848998      0.02696313     -0.00076818
ATVX     1  Mu1.0011  Se1.023                       1.58050467      0.04141216     -0.02522430     -0.00104459
ATVX     1  Mu1.0003  Se1.026                       1.44346147      0.03817165     -0.02663868     -0.00101684
--
 
   (Skipping property calculation,
    use PROP keyword to activate)
--
 
++ CASPT2 computation for group   4
 
********************************************************************************
 Multi-State initialization phase begins for group   4
--------------------------------------------------------------------------------
********************************************************************************
 Compute H0 matrices for state    4
--------------------------------------------------------------------------------
--------------------------------------------------------------------------------
 H0 matrices have been computed.
 
********************************************************************************
  CASPT2 EQUATION SOLUTION
--------------------------------------------------------------------------------
 
  Total nr of CASPT2 parameters:
   Before reduction:      240779
   After  reduction:      239613
 
 The contributions to the second order correlation energy in atomic units.
-----------------------------------------------------------------------------------------------------------------------------
  IT.      VJTU        VJTI        ATVX        AIVX        VJAI        BVAT        BJAT        BJAI        TOTAL       RNORM  
-----------------------------------------------------------------------------------------------------------------------------
   1     0.000000    0.000000   -0.117314    0.000000    0.000000   -0.140308    0.000000    0.000000   -0.257622    0.007189
   2     0.000000    0.000000   -0.118040    0.000000    0.000000   -0.140466    0.000000    0.000000   -0.258505    0.000826
   3     0.000000    0.000000   -0.118061    0.000000    0.000000   -0.140482    0.000000    0.000000   -0.258542    0.000095
   4     0.000000    0.000000   -0.118055    0.000000    0.000000   -0.140480    0.000000    0.000000   -0.258535    0.000011
   5     0.000000    0.000000   -0.118055    0.000000    0.000000   -0.140480    0.000000    0.000000   -0.258534    0.000001
-----------------------------------------------------------------------------------------------------------------------------
 
  FINAL CASPT2 RESULT:
 
      Reference energy:        -112.5868874527
      E2 (Non-variational):      -0.2585343428
      Shift correction:          -0.0004740203
      E2 (Variational):          -0.2590083631
      Total energy:            -112.8458958158
      Residual norm:              0.0000001684
      Reference weight:           0.93300
 
      Contributions to the CASPT2 correlation energy
      Active & Virtual Only:         -0.2585343428
      One Inactive Excited:           0.0000000000
      Two Inactive Excited:           0.0000000000
 
 
++ Denominators, etc.
--------------------------------------------------------------------------------------------------------------
 Report on small energy denominators, large coefficients, and large energy contributions.
CASE  SYMM ACTIVE-MIX  NON-ACTIVE INDICES          DENOMINATOR     RHS VALUE       COEFFICIENT     CONTRIBUTION
ATVX     1  Mu1.0001  Se1.014                       0.06824085      0.00010910     -0.00051652     -0.00000006
ATVX     1  Mu1.0002  Se1.014                       0.08971858      0.00000198     -0.00000907     -0.00000000
ATVX     1  Mu1.0003  Se1.014                       0.08975918     -0.00000142      0.00000650     -0.00000000
ATVX     1  Mu1.0027  Se1.014                       0.96142235      0.02813545     -0.02760616     -0.00077671
ATVX     1  Mu1.0002  Se1.016                       0.37497583     -0.02773777      0.06667261     -0.00184935
ATVX     1  Mu1.0003  Se1.017                       0.37501583      0.02773431     -0.06665803     -0.00184871
ATVX     1  Mu1.0019  Se1.018                       1.28372998      0.04330409     -0.03398728     -0.00147179
ATVX     1  Mu1.0020  Se1.019                       1.30403486     -0.04349952      0.03365504     -0.00146398
--
 
   (Skipping property calculation,
    use PROP keyword to activate)
--
 
++ CASPT2 computation for group   5
 
********************************************************************************
 Multi-State initialization phase begins for group   5
--------------------------------------------------------------------------------
********************************************************************************
 Compute H0 matrices for state    5
--------------------------------------------------------------------------------
--------------------------------------------------------------------------------
 H0 matrices have been computed.
 
********************************************************************************
  CASPT2 EQUATION SOLUTION
--------------------------------------------------------------------------------
 
  Total nr of CASPT2 parameters:
   Before reduction:      240779
   After  reduction:      240196
 
 The contributions to the second order correlation energy in atomic units.
-----------------------------------------------------------------------------------------------------------------------------
  IT.      VJTU        VJTI        ATVX        AIVX        VJAI        BVAT        BJAT        BJAI        TOTAL       RNORM  
-----------------------------------------------------------------------------------------------------------------------------
   1     0.000000    0.000000   -0.113222    0.000000    0.000000   -0.143268    0.000000    0.000000   -0.256490    0.007215
   2     0.000000    0.000000   -0.113960    0.000000    0.000000   -0.143411    0.000000    0.000000   -0.257371    0.000838
   3     0.000000    0.000000   -0.113984    0.000000    0.000000   -0.143427    0.000000    0.000000   -0.257411    0.000099
   4     0.000000    0.000000   -0.113978    0.000000    0.000000   -0.143425    0.000000    0.000000   -0.257403    0.000012
   5     0.000000    0.000000   -0.113977    0.000000    0.000000   -0.143425    0.000000    0.000000   -0.257402    0.000002
-----------------------------------------------------------------------------------------------------------------------------
 
  FINAL CASPT2 RESULT:
 
      Reference energy:        -112.5841055227
      E2 (Non-variational):      -0.2574024914
      Shift correction:          -0.0005742543
      E2 (Variational):          -0.2579767458
      Total energy:            -112.8420822684
      Residual norm:              0.0000002367
      Reference weight:           0.93070
 
      Contributions to the CASPT2 correlation energy
      Active & Virtual Only:         -0.2574024914
      One Inactive Excited:           0.0000000000
      Two Inactive Excited:           0.0000000000
 
 
++ Denominators, etc.
--------------------------------------------------------------------------------------------------------------
 Report on small energy denominators, large coefficients, and large energy contributions.
CASE  SYMM ACTIVE-MIX  NON-ACTIVE INDICES          DENOMINATOR     RHS VALUE       COEFFICIENT     CONTRIBUTION
ATVX     1  Mu1.0001  Se1.014                       0.04477896      0.00000000      0.00000001      0.00000000
ATVX     1  Mu1.0002  Se1.014                       0.07871957      0.00000047     -0.00000211     -0.00000000
ATVX     1  Mu1.0003  Se1.014                       0.07874637      0.00000260     -0.00001174     -0.00000000
ATVX     1  Mu1.0026  Se1.014                       0.94907087     -0.02612008      0.02600876     -0.00067935
ATVX     1  Mu1.0001  Se1.015                       0.29506528     -0.00000003      0.00000007     -0.00000000
ATVX     1  Mu1.0003  Se1.016                       0.36744317     -0.03172198      0.07776945     -0.00246700
ATVX     1  Mu1.0002  Se1.017                       0.36741702     -0.03172502      0.07778170     -0.00246763
ATVX     1  Mu1.0020  Se1.018                       1.26650153      0.04721572     -0.03757206     -0.00177399
--
 
   (Skipping property calculation,
    use PROP keyword to activate)
--
 
++ CASPT2 computation for group   6
 
********************************************************************************
 Multi-State initialization phase begins for group   6
--------------------------------------------------------------------------------
********************************************************************************
 Compute H0 matrices for state    6
--------------------------------------------------------------------------------
--------------------------------------------------------------------------------
 H0 matrices have been computed.
 
********************************************************************************
  CASPT2 EQUATION SOLUTION
--------------------------------------------------------------------------------
 
  Total nr of CASPT2 parameters:
   Before reduction:      240779
   After  reduction:      240196
 
 The contributions to the second order correlation energy in atomic units.
-----------------------------------------------------------------------------------------------------------------------------
  IT.      VJTU        VJTI        ATVX        AIVX        VJAI        BVAT        BJAT        BJAI        TOTAL       RNORM  
-----------------------------------------------------------------------------------------------------------------------------
   1     0.000000    0.000000   -0.113224    0.000000    0.000000   -0.143269    0.000000    0.000000   -0.256493    0.007215
   2     0.000000    0.000000   -0.113962    0.000000    0.000000   -0.143412    0.000000    0.000000   -0.257375    0.000838
   3     0.000000    0.000000   -0.113986    0.000000    0.000000   -0.143428    0.000000    0.000000   -0.257414    0.000099
   4     0.000000    0.000000   -0.113980    0.000000    0.000000   -0.143426    0.000000    0.000000   -0.257406    0.000012
   5     0.000000    0.000000   -0.113979    0.000000    0.000000   -0.143426    0.000000    0.000000   -0.257405    0.000002
-----------------------------------------------------------------------------------------------------------------------------
 
  FINAL CASPT2 RESULT:
 
      Reference energy:        -112.5841055221
      E2 (Non-variational):      -0.2574055644
      Shift correction:          -0.0005731502
      E2 (Variational):          -0.2579787146
      Total energy:            -112.8420842367
      Residual norm:              0.0000002369
      Reference weight:           0.93072
 
      Contributions to the CASPT2 correlation energy
      Active & Virtual Only:         -0.2574055644
      One Inactive Excited:           0.0000000000
      Two Inactive Excited:           0.0000000000
 
 
++ Denominators, etc.
--------------------------------------------------------------------------------------------------------------
 Report on small energy denominators, large coefficients, and large energy contributions.
CASE  SYMM ACTIVE-MIX  NON-ACTIVE INDICES          DENOMINATOR     RHS VALUE       COEFFICIENT     CONTRIBUTION
ATVX     1  Mu1.0001  Se1.014                       0.04717740     -0.00000005      0.00000021     -0.00000000
ATVX     1  Mu1.0002  Se1.014                       0.07919351      0.00000220     -0.00000996     -0.00000000
ATVX     1  Mu1.0003  Se1.014                       0.07922539      0.00000145     -0.00000658     -0.00000000
ATVX     1  Mu1.0026  Se1.014                       0.94832447      0.02661216     -0.02651902     -0.00070573
ATVX     1  Mu1.0001  Se1.015                       0.29746373     -0.00000003      0.00000007     -0.00000000
ATVX     1  Mu1.0003  Se1.016                       0.36792215     -0.03184741      0.07798775     -0.00248371
ATVX     1  Mu1.0002  Se1.017                       0.36789103     -0.03185103      0.07800235     -0.00248445
ATVX     1  Mu1.0020  Se1.019                       1.26561788     -0.04675432      0.03723052     -0.00174069
--
 
   (Skipping property calculation,
    use PROP keyword to activate)
--
 
++ CASPT2 computation for group   7
 
********************************************************************************
 Multi-State initialization phase begins for group   7
--------------------------------------------------------------------------------
********************************************************************************
 Compute H0 matrices for state    7
--------------------------------------------------------------------------------
--------------------------------------------------------------------------------
 H0 matrices have been computed.
 
********************************************************************************
  CASPT2 EQUATION SOLUTION
--------------------------------------------------------------------------------
 
  Total nr of CASPT2 parameters:
   Before reduction:      240779
   After  reduction:      239613
 
 The contributions to the second order correlation energy in atomic units.
-----------------------------------------------------------------------------------------------------------------------------
  IT.      VJTU        VJTI        ATVX        AIVX        VJAI        BVAT        BJAT        BJAI        TOTAL       RNORM  
-----------------------------------------------------------------------------------------------------------------------------
   1     0.000000    0.000000   -0.102576    0.000000    0.000000   -0.127455    0.000000    0.000000   -0.230031    0.005337
   2     0.000000    0.000000   -0.103024    0.000000    0.000000   -0.127515    0.000000    0.000000   -0.230540    0.000724
   3     0.000000    0.000000   -0.103036    0.000000    0.000000   -0.127530    0.000000    0.000000   -0.230566    0.000105
   4     0.000000    0.000000   -0.103029    0.000000    0.000000   -0.127529    0.000000    0.000000   -0.230558    0.000017
   5     0.000000    0.000000   -0.103028    0.000000    0.000000   -0.127529    0.000000    0.000000   -0.230557    0.000002
-----------------------------------------------------------------------------------------------------------------------------
 
  FINAL CASPT2 RESULT:
 
      Reference energy:        -112.5352955571
      E2 (Non-variational):      -0.2305574133
      Shift correction:           0.0000542671
      E2 (Variational):          -0.2305031462
      Total energy:            -112.7657987033
      Residual norm:              0.0000004038
      Reference weight:           0.93337
 
      Contributions to the CASPT2 correlation energy
      Active & Virtual Only:         -0.2305574133
      One Inactive Excited:           0.0000000000
      Two Inactive Excited:           0.0000000000
 
 
++ Denominators, etc.
--------------------------------------------------------------------------------------------------------------
 Report on small energy denominators, large coefficients, and large energy contributions.
CASE  SYMM ACTIVE-MIX  NON-ACTIVE INDICES          DENOMINATOR     RHS VALUE       COEFFICIENT     CONTRIBUTION
ATVX     1  Mu1.0001  Se1.014                      -0.08444620     -0.01275287     -0.06306270      0.00080423
ATVX     1  Mu1.0002  Se1.014                       0.21424140      0.00000085     -0.00000345     -0.00000000
ATVX     1  Mu1.0003  Se1.014                       0.21424562     -0.00000091      0.00000369     -0.00000000
ATVX     1  Mu1.0005  Se1.014                       0.50381512     -0.02228726      0.04303908     -0.00095922
ATVX     1  Mu1.0015  Se1.014                       0.78523239      0.02068114     -0.02640445     -0.00054607
ATVX     1  Mu1.0001  Se1.015                       0.22766818      0.00287097     -0.01225559     -0.00003519
ATVX     1  Mu1.0005  Se1.015                       0.81592950      0.02873081     -0.03528716     -0.00101383
ATVX     1  Mu1.0015  Se1.015                       1.09734676     -0.02784214      0.02542403     -0.00070786
ATVX     1  Mu1.0001  Se1.016                       0.27811470      0.00000121     -0.00000426     -0.00000000
ATVX     1  Mu1.0003  Se1.016                       0.57680652     -0.01958511      0.03330753     -0.00065233
ATVX     1  Mu1.0001  Se1.017                       0.27811393      0.00000091     -0.00000320     -0.00000000
ATVX     1  Mu1.0002  Se1.017                       0.57680153      0.01958495     -0.03330753     -0.00065233
ATVX     1  Mu1.0001  Se1.020                       0.59789298      0.04839480     -0.07853473     -0.00380067
ATVX     1  Mu1.0005  Se1.020                       1.18615430      0.03428881     -0.02893147     -0.00099203
ATVX     1  Mu1.0001  Se1.026                       0.90593922      0.02536373     -0.02741863     -0.00069544
--
 
   (Skipping property calculation,
    use PROP keyword to activate)
--
 
++ CASPT2 computation for group   8
 
********************************************************************************
 Multi-State initialization phase begins for group   8
--------------------------------------------------------------------------------
********************************************************************************
 Compute H0 matrices for state    8
--------------------------------------------------------------------------------
--------------------------------------------------------------------------------
 H0 matrices have been computed.
 
********************************************************************************
  CASPT2 EQUATION SOLUTION
--------------------------------------------------------------------------------
 
  Total nr of CASPT2 parameters:
   Before reduction:      240779
   After  reduction:      240196
 
 The contributions to the second order correlation energy in atomic units.
-----------------------------------------------------------------------------------------------------------------------------
  IT.      VJTU        VJTI        ATVX        AIVX        VJAI        BVAT        BJAT        BJAI        TOTAL       RNORM  
-----------------------------------------------------------------------------------------------------------------------------
   1     0.000000    0.000000   -0.105134    0.000000    0.000000   -0.131308    0.000000    0.000000   -0.236442    0.005210
   2     0.000000    0.000000   -0.105588    0.000000    0.000000   -0.131378    0.000000    0.000000   -0.236965    0.000704
   3     0.000000    0.000000   -0.105602    0.000000    0.000000   -0.131391    0.000000    0.000000   -0.236993    0.000102
   4     0.000000    0.000000   -0.105596    0.000000    0.000000   -0.131390    0.000000    0.000000   -0.236986    0.000017
   5     0.000000    0.000000   -0.105596    0.000000    0.000000   -0.131389    0.000000    0.000000   -0.236985    0.000002
-----------------------------------------------------------------------------------------------------------------------------
 
  FINAL CASPT2 RESULT:
 
      Reference energy:        -112.5006959750
      E2 (Non-variational):      -0.2369851672
      Shift correction:          -0.0006325923
      E2 (Variational):          -0.2376177595
      Total energy:            -112.7383137346
      Residual norm:              0.0000002892
      Reference weight:           0.93292
 
      Contributions to the CASPT2 correlation energy
      Active & Virtual Only:         -0.2369851672
      One Inactive Excited:           0.0000000000
      Two Inactive Excited:           0.0000000000
 
 
++ Denominators, etc.
--------------------------------------------------------------------------------------------------------------
 Report on small energy denominators, large coefficients, and large energy contributions.
CASE  SYMM ACTIVE-MIX  NON-ACTIVE INDICES          DENOMINATOR     RHS VALUE       COEFFICIENT     CONTRIBUTION
ATVX     1  Mu1.0001  Se1.014                      -0.11996598      0.00000158      0.00000741      0.00000000
ATVX     1  Mu1.0002  Se1.014                       0.19646768     -0.00000026      0.00000111     -0.00000000
ATVX     1  Mu1.0003  Se1.014                       0.21512674      0.00261643     -0.01036895     -0.00002713
ATVX     1  Mu1.0005  Se1.014                       0.40589202     -0.03361679      0.08025341     -0.00269786
ATVX     1  Mu1.0007  Se1.014                       0.48777977     -0.02571514      0.05172157     -0.00133003
ATVX     1  Mu1.0001  Se1.015                       0.14913338      0.00000241     -0.00001060     -0.00000000
ATVX     1  Mu1.0007  Se1.015                       0.75687913      0.02487265     -0.03227756     -0.00080283
ATVX     1  Mu1.0001  Se1.016                       0.19433663     -0.00001489      0.00006098     -0.00000000
ATVX     1  Mu1.0001  Se1.017                       0.19965369     -0.01326534      0.05343026     -0.00070877
ATVX     1  Mu1.0087  Se1.017                       1.89816958     -0.05038396      0.02554363     -0.00128699
ATVX     1  Mu1.0007  Se1.020                       1.13923564      0.03706315     -0.03294767     -0.00122114
ATVX     1  Mu1.0001  Se1.022                       0.55428118      0.02110595     -0.03614908     -0.00076296
ATVX     1  Mu1.0005  Se1.023                       1.13659830     -0.04413029      0.03857582     -0.00170236
ATVX     1  Mu1.0001  Se1.025                       0.71558261     -0.02535812      0.03341518     -0.00084735
--
 
   (Skipping property calculation,
    use PROP keyword to activate)
--
 
++ CASPT2 computation for group   9
 
********************************************************************************
 Multi-State initialization phase begins for group   9
--------------------------------------------------------------------------------
********************************************************************************
 Compute H0 matrices for state    9
--------------------------------------------------------------------------------
--------------------------------------------------------------------------------
 H0 matrices have been computed.
 
********************************************************************************
  CASPT2 EQUATION SOLUTION
--------------------------------------------------------------------------------
 
  Total nr of CASPT2 parameters:
   Before reduction:      240779
   After  reduction:      240196
 
 The contributions to the second order correlation energy in atomic units.
-----------------------------------------------------------------------------------------------------------------------------
  IT.      VJTU        VJTI        ATVX        AIVX        VJAI        BVAT        BJAT        BJAI        TOTAL       RNORM  
-----------------------------------------------------------------------------------------------------------------------------
   1     0.000000    0.000000   -0.105137    0.000000    0.000000   -0.131309    0.000000    0.000000   -0.236446    0.005210
   2     0.000000    0.000000   -0.105591    0.000000    0.000000   -0.131378    0.000000    0.000000   -0.236969    0.000704
   3     0.000000    0.000000   -0.105605    0.000000    0.000000   -0.131392    0.000000    0.000000   -0.236997    0.000102
   4     0.000000    0.000000   -0.105599    0.000000    0.000000   -0.131390    0.000000    0.000000   -0.236989    0.000017
   5     0.000000    0.000000   -0.105598    0.000000    0.000000   -0.131390    0.000000    0.000000   -0.236989    0.000002
-----------------------------------------------------------------------------------------------------------------------------
 
  FINAL CASPT2 RESULT:
 
      Reference energy:        -112.5006934881
      E2 (Non-variational):      -0.2369888022
      Shift correction:          -0.0006328183
      E2 (Variational):          -0.2376216206
      Total energy:            -112.7383151087
      Residual norm:              0.0000002892
      Reference weight:           0.93292
 
      Contributions to the CASPT2 correlation energy
      Active & Virtual Only:         -0.2369888022
      One Inactive Excited:           0.0000000000
      Two Inactive Excited:           0.0000000000
 
 
++ Denominators, etc.
--------------------------------------------------------------------------------------------------------------
 Report on small energy denominators, large coefficients, and large energy contributions.
CASE  SYMM ACTIVE-MIX  NON-ACTIVE INDICES          DENOMINATOR     RHS VALUE       COEFFICIENT     CONTRIBUTION
ATVX     1  Mu1.0001  Se1.014                      -0.11997129     -0.00000208     -0.00000972      0.00000000
ATVX     1  Mu1.0002  Se1.014                       0.19646002     -0.00000026      0.00000109     -0.00000000
ATVX     1  Mu1.0003  Se1.014                       0.21512331      0.00261658     -0.01036963     -0.00002713
ATVX     1  Mu1.0005  Se1.014                       0.40588413     -0.03361866      0.08025909     -0.00269820
ATVX     1  Mu1.0007  Se1.014                       0.48777734     -0.02571336      0.05171821     -0.00132985
ATVX     1  Mu1.0001  Se1.015                       0.14912646     -0.00000342      0.00001505     -0.00000000
ATVX     1  Mu1.0007  Se1.015                       0.75687510      0.02487171     -0.03227648     -0.00080277
ATVX     1  Mu1.0001  Se1.016                       0.19964696      0.01327327     -0.05346321     -0.00070963
ATVX     1  Mu1.0087  Se1.016                       1.89816551     -0.05037462      0.02553899     -0.00128652
ATVX     1  Mu1.0001  Se1.017                       0.19432946     -0.00001496      0.00006125     -0.00000000
ATVX     1  Mu1.0007  Se1.020                       1.13923222      0.03706172     -0.03294664     -0.00122106
ATVX     1  Mu1.0001  Se1.021                       0.55427640     -0.02111188      0.03615967     -0.00076340
ATVX     1  Mu1.0005  Se1.023                       1.13659220     -0.04413180      0.03857740     -0.00170249
ATVX     1  Mu1.0001  Se1.024                       0.71557703      0.02536271     -0.03342162     -0.00084766
--
 
   (Skipping property calculation,
    use PROP keyword to activate)
--
 
++ CASPT2 computation for group  10
 
********************************************************************************
 Multi-State initialization phase begins for group  10
--------------------------------------------------------------------------------
********************************************************************************
 Compute H0 matrices for state   10
--------------------------------------------------------------------------------
--------------------------------------------------------------------------------
 H0 matrices have been computed.
 
********************************************************************************
  CASPT2 EQUATION SOLUTION
--------------------------------------------------------------------------------
 
  Total nr of CASPT2 parameters:
   Before reduction:      240779
   After  reduction:      240196
 
 The contributions to the second order correlation energy in atomic units.
-----------------------------------------------------------------------------------------------------------------------------
  IT.      VJTU        VJTI        ATVX        AIVX        VJAI        BVAT        BJAT        BJAI        TOTAL       RNORM  
-----------------------------------------------------------------------------------------------------------------------------
   1     0.000000    0.000000   -0.106396    0.000000    0.000000   -0.125432    0.000000    0.000000   -0.231828    0.004992
   2     0.000000    0.000000   -0.106798    0.000000    0.000000   -0.125492    0.000000    0.000000   -0.232290    0.000573
   3     0.000000    0.000000   -0.106807    0.000000    0.000000   -0.125504    0.000000    0.000000   -0.232312    0.000068
   4     0.000000    0.000000   -0.106803    0.000000    0.000000   -0.125504    0.000000    0.000000   -0.232307    0.000010
   5     0.000000    0.000000   -0.106803    0.000000    0.000000   -0.125504    0.000000    0.000000   -0.232306    0.000001
-----------------------------------------------------------------------------------------------------------------------------
 
  FINAL CASPT2 RESULT:
 
      Reference energy:        -112.4479285196
      E2 (Non-variational):      -0.2323064418
      Shift correction:          -0.0001480154
      E2 (Variational):          -0.2324544572
      Total energy:            -112.6803829768
      Residual norm:              0.0000002246
      Reference weight:           0.94097
 
      Contributions to the CASPT2 correlation energy
      Active & Virtual Only:         -0.2323064418
      One Inactive Excited:           0.0000000000
      Two Inactive Excited:           0.0000000000
 
 
++ Denominators, etc.
--------------------------------------------------------------------------------------------------------------
 Report on small energy denominators, large coefficients, and large energy contributions.
CASE  SYMM ACTIVE-MIX  NON-ACTIVE INDICES          DENOMINATOR     RHS VALUE       COEFFICIENT     CONTRIBUTION
ATVX     1  Mu1.0001  Se1.014                      -0.03438781      0.00807584      0.02488243      0.00020095
ATVX     1  Mu1.0002  Se1.014                       0.03887186     -0.00000056      0.00000199     -0.00000000
ATVX     1  Mu1.0003  Se1.014                       0.22694572     -0.00000002      0.00000009     -0.00000000
ATVX     1  Mu1.0001  Se1.015                       0.21746775      0.00747577     -0.02501617     -0.00018702
ATVX     1  Mu1.0002  Se1.015                       0.29072741     -0.00000033      0.00000107     -0.00000000
ATVX     1  Mu1.0001  Se1.016                       0.26298829      0.00000039     -0.00000121     -0.00000000
ATVX     1  Mu1.0005  Se1.016                       0.95969470     -0.04063519      0.04114644     -0.00167199
ATVX     1  Mu1.0001  Se1.017                       0.26540353     -0.00000017      0.00000065     -0.00000000
ATVX     1  Mu1.0001  Se1.020                       0.60750886     -0.03101211      0.04992104     -0.00154816
ATVX     1  Mu1.0001  Se1.026                       0.92596256     -0.02374368      0.02564106     -0.00060881
--
 
   (Skipping property calculation,
    use PROP keyword to activate)
--
 
++ CASPT2 computation for group  11
 
********************************************************************************
 Multi-State initialization phase begins for group  11
--------------------------------------------------------------------------------
********************************************************************************
 Compute H0 matrices for state   11
--------------------------------------------------------------------------------
--------------------------------------------------------------------------------
 H0 matrices have been computed.
 
********************************************************************************
  CASPT2 EQUATION SOLUTION
--------------------------------------------------------------------------------
 
  Total nr of CASPT2 parameters:
   Before reduction:      240779
   After  reduction:      240196
 
 The contributions to the second order correlation energy in atomic units.
-----------------------------------------------------------------------------------------------------------------------------
  IT.      VJTU        VJTI        ATVX        AIVX        VJAI        BVAT        BJAT        BJAI        TOTAL       RNORM  
-----------------------------------------------------------------------------------------------------------------------------
   1     0.000000    0.000000   -0.106396    0.000000    0.000000   -0.125432    0.000000    0.000000   -0.231827    0.004992
   2     0.000000    0.000000   -0.106798    0.000000    0.000000   -0.125492    0.000000    0.000000   -0.232290    0.000573
   3     0.000000    0.000000   -0.106807    0.000000    0.000000   -0.125504    0.000000    0.000000   -0.232311    0.000068
   4     0.000000    0.000000   -0.106803    0.000000    0.000000   -0.125503    0.000000    0.000000   -0.232306    0.000010
   5     0.000000    0.000000   -0.106803    0.000000    0.000000   -0.125503    0.000000    0.000000   -0.232306    0.000001
-----------------------------------------------------------------------------------------------------------------------------
 
  FINAL CASPT2 RESULT:
 
      Reference energy:        -112.4479284750
      E2 (Non-variational):      -0.2323059657
      Shift correction:          -0.0001480102
      E2 (Variational):          -0.2324539759
      Total energy:            -112.6803824509
      Residual norm:              0.0000002246
      Reference weight:           0.94097
 
      Contributions to the CASPT2 correlation energy
      Active & Virtual Only:         -0.2323059657
      One Inactive Excited:           0.0000000000
      Two Inactive Excited:           0.0000000000
 
 
++ Denominators, etc.
--------------------------------------------------------------------------------------------------------------
 Report on small energy denominators, large coefficients, and large energy contributions.
CASE  SYMM ACTIVE-MIX  NON-ACTIVE INDICES          DENOMINATOR     RHS VALUE       COEFFICIENT     CONTRIBUTION
ATVX     1  Mu1.0001  Se1.014                      -0.03438422      0.00807590      0.02488061      0.00020093
ATVX     1  Mu1.0002  Se1.014                       0.03888292      0.00000038     -0.00000136     -0.00000000
ATVX     1  Mu1.0003  Se1.014                       0.22695424      0.00000007     -0.00000026     -0.00000000
ATVX     1  Mu1.0001  Se1.015                       0.21747173      0.00747549     -0.02501464     -0.00018700
ATVX     1  Mu1.0002  Se1.015                       0.29073888      0.00000023     -0.00000073     -0.00000000
ATVX     1  Mu1.0001  Se1.016                       0.26540743     -0.00000029      0.00000110     -0.00000000
ATVX     1  Mu1.0001  Se1.017                       0.26299257      0.00000029     -0.00000091     -0.00000000
ATVX     1  Mu1.0005  Se1.017                       0.95969365      0.04063480     -0.04114602     -0.00167196
ATVX     1  Mu1.0001  Se1.020                       0.60751288     -0.03101237      0.04992119     -0.00154817
ATVX     1  Mu1.0001  Se1.026                       0.92596577     -0.02374375      0.02564106     -0.00060881
--
 
   (Skipping property calculation,
    use PROP keyword to activate)
--
 
++ CASPT2 computation for group  12
 
********************************************************************************
 Multi-State initialization phase begins for group  12
--------------------------------------------------------------------------------
********************************************************************************
 Compute H0 matrices for state   12
--------------------------------------------------------------------------------
--------------------------------------------------------------------------------
 H0 matrices have been computed.
 
********************************************************************************
  CASPT2 EQUATION SOLUTION
--------------------------------------------------------------------------------
 
  Total nr of CASPT2 parameters:
   Before reduction:      240779
   After  reduction:      240196
 
 The contributions to the second order correlation energy in atomic units.
-----------------------------------------------------------------------------------------------------------------------------
  IT.      VJTU        VJTI        ATVX        AIVX        VJAI        BVAT        BJAT        BJAI        TOTAL       RNORM  
-----------------------------------------------------------------------------------------------------------------------------
   1     0.000000    0.000000   -0.123786    0.000000    0.000000   -0.141523    0.000000    0.000000   -0.265309    0.006237
   2     0.000000    0.000000   -0.124400    0.000000    0.000000   -0.141676    0.000000    0.000000   -0.266076    0.000756
   3     0.000000    0.000000   -0.124412    0.000000    0.000000   -0.141690    0.000000    0.000000   -0.266102    0.000101
   4     0.000000    0.000000   -0.124405    0.000000    0.000000   -0.141688    0.000000    0.000000   -0.266093    0.000014
   5     0.000000    0.000000   -0.124405    0.000000    0.000000   -0.141688    0.000000    0.000000   -0.266093    0.000002
-----------------------------------------------------------------------------------------------------------------------------
 
  FINAL CASPT2 RESULT:
 
      Reference energy:        -112.4386698172
      E2 (Non-variational):      -0.2660931683
      Shift correction:          -0.0009288443
      E2 (Variational):          -0.2670220126
      Total energy:            -112.7056918298
      Residual norm:              0.0000003493
      Reference weight:           0.91993
 
      Contributions to the CASPT2 correlation energy
      Active & Virtual Only:         -0.2660931683
      One Inactive Excited:           0.0000000000
      Two Inactive Excited:           0.0000000000
 
 
++ Denominators, etc.
--------------------------------------------------------------------------------------------------------------
 Report on small energy denominators, large coefficients, and large energy contributions.
CASE  SYMM ACTIVE-MIX  NON-ACTIVE INDICES          DENOMINATOR     RHS VALUE       COEFFICIENT     CONTRIBUTION
ATVX     1  Mu1.0001  Se1.014                      -0.16977576     -0.00000279     -0.00001138      0.00000000
ATVX     1  Mu1.0002  Se1.014                       0.01920308     -0.00174839      0.00355594     -0.00000622
ATVX     1  Mu1.0003  Se1.014                       0.06770417     -0.00000040      0.00000189     -0.00000000
ATVX     1  Mu1.0004  Se1.014                       0.09639914      0.00000496     -0.00002414     -0.00000000
ATVX     1  Mu1.0001  Se1.015                       0.07040440     -0.00000122      0.00000578     -0.00000000
ATVX     1  Mu1.0002  Se1.015                       0.25938324     -0.00890860      0.02915720     -0.00025975
ATVX     1  Mu1.0001  Se1.016                       0.11134426      0.01096769     -0.05434140     -0.00059600
ATVX     1  Mu1.0004  Se1.016                       0.37751915     -0.02862383      0.06797960     -0.00194584
ATVX     1  Mu1.0001  Se1.017                       0.10921718     -0.00000308      0.00001581     -0.00000000
ATVX     1  Mu1.0002  Se1.017                       0.29819601      0.00000043     -0.00000132     -0.00000000
ATVX     1  Mu1.0001  Se1.018                       0.28638330      0.00000011     -0.00000034     -0.00000000
ATVX     1  Mu1.0003  Se1.018                       0.52386323     -0.03583756      0.06645728     -0.00238167
ATVX     1  Mu1.0001  Se1.019                       0.28634728     -0.00000074      0.00000232     -0.00000000
ATVX     1  Mu1.0002  Se1.019                       0.47532612     -0.03558758      0.07245063     -0.00257834
ATVX     1  Mu1.0012  Se1.019                       1.07157548     -0.03173675      0.02970346     -0.00094269
ATVX     1  Mu1.0004  Se1.021                       0.80178637      0.02777806     -0.03350000     -0.00093057
--
 
   (Skipping property calculation,
    use PROP keyword to activate)
--
 
++ CASPT2 computation for group  13
 
********************************************************************************
 Multi-State initialization phase begins for group  13
--------------------------------------------------------------------------------
********************************************************************************
 Compute H0 matrices for state   13
--------------------------------------------------------------------------------
--------------------------------------------------------------------------------
 H0 matrices have been computed.
 
********************************************************************************
  CASPT2 EQUATION SOLUTION
--------------------------------------------------------------------------------
 
  Total nr of CASPT2 parameters:
   Before reduction:      240779
   After  reduction:      240196
 
 The contributions to the second order correlation energy in atomic units.
-----------------------------------------------------------------------------------------------------------------------------
  IT.      VJTU        VJTI        ATVX        AIVX        VJAI        BVAT        BJAT        BJAI        TOTAL       RNORM  
-----------------------------------------------------------------------------------------------------------------------------
   1     0.000000    0.000000   -0.123786    0.000000    0.000000   -0.141524    0.000000    0.000000   -0.265311    0.006237
   2     0.000000    0.000000   -0.124401    0.000000    0.000000   -0.141677    0.000000    0.000000   -0.266077    0.000756
   3     0.000000    0.000000   -0.124413    0.000000    0.000000   -0.141691    0.000000    0.000000   -0.266104    0.000101
   4     0.000000    0.000000   -0.124406    0.000000    0.000000   -0.141689    0.000000    0.000000   -0.266095    0.000014
   5     0.000000    0.000000   -0.124406    0.000000    0.000000   -0.141689    0.000000    0.000000   -0.266094    0.000002
-----------------------------------------------------------------------------------------------------------------------------
 
  FINAL CASPT2 RESULT:
 
      Reference energy:        -112.4386693259
      E2 (Non-variational):      -0.2660945074
      Shift correction:          -0.0009287382
      E2 (Variational):          -0.2670232456
      Total energy:            -112.7056925716
      Residual norm:              0.0000003493
      Reference weight:           0.91993
 
      Contributions to the CASPT2 correlation energy
      Active & Virtual Only:         -0.2660945074
      One Inactive Excited:           0.0000000000
      Two Inactive Excited:           0.0000000000
 
 
++ Denominators, etc.
--------------------------------------------------------------------------------------------------------------
 Report on small energy denominators, large coefficients, and large energy contributions.
CASE  SYMM ACTIVE-MIX  NON-ACTIVE INDICES          DENOMINATOR     RHS VALUE       COEFFICIENT     CONTRIBUTION
ATVX     1  Mu1.0001  Se1.014                      -0.16977102     -0.00000202     -0.00000825      0.00000000
ATVX     1  Mu1.0002  Se1.014                       0.01921129      0.00174866     -0.00355788     -0.00000622
ATVX     1  Mu1.0003  Se1.014                       0.06770710     -0.00000039      0.00000183     -0.00000000
ATVX     1  Mu1.0004  Se1.014                       0.09639821     -0.00000362      0.00001764     -0.00000000
ATVX     1  Mu1.0001  Se1.015                       0.07040924     -0.00000089      0.00000423     -0.00000000
ATVX     1  Mu1.0002  Se1.015                       0.25939155      0.00890876     -0.02915705     -0.00025975
ATVX     1  Mu1.0001  Se1.016                       0.10922127      0.00000312     -0.00001602     -0.00000000
ATVX     1  Mu1.0002  Se1.016                       0.29820358     -0.00000059      0.00000181     -0.00000000
ATVX     1  Mu1.0001  Se1.017                       0.11134905      0.01096537     -0.05432940     -0.00059574
ATVX     1  Mu1.0004  Se1.017                       0.37751828      0.02862654     -0.06798622     -0.00194621
ATVX     1  Mu1.0001  Se1.018                       0.28638986      0.00000010     -0.00000030     -0.00000000
ATVX     1  Mu1.0003  Se1.018                       0.52386798      0.03583798     -0.06645754     -0.00238170
ATVX     1  Mu1.0001  Se1.019                       0.28635383      0.00000053     -0.00000169     -0.00000000
ATVX     1  Mu1.0002  Se1.019                       0.47533614     -0.03558794      0.07245004     -0.00257835
ATVX     1  Mu1.0012  Se1.019                       1.07157129     -0.03173722      0.02970404     -0.00094272
ATVX     1  Mu1.0004  Se1.022                       0.80178843     -0.02778059      0.03350293     -0.00093073
--
 
   (Skipping property calculation,
    use PROP keyword to activate)
--
 
++ CASPT2 computation for group  14
 
********************************************************************************
 Multi-State initialization phase begins for group  14
--------------------------------------------------------------------------------
********************************************************************************
 Compute H0 matrices for state   14
--------------------------------------------------------------------------------
--------------------------------------------------------------------------------
 H0 matrices have been computed.
 
********************************************************************************
  CASPT2 EQUATION SOLUTION
--------------------------------------------------------------------------------
 
  Total nr of CASPT2 parameters:
   Before reduction:      240779
   After  reduction:      239613
 
 The contributions to the second order correlation energy in atomic units.
-----------------------------------------------------------------------------------------------------------------------------
  IT.      VJTU        VJTI        ATVX        AIVX        VJAI        BVAT        BJAT        BJAI        TOTAL       RNORM  
-----------------------------------------------------------------------------------------------------------------------------
   1     0.000000    0.000000   -0.145684    0.000000    0.000000   -0.131530    0.000000    0.000000   -0.277213    0.005874
   2     0.000000    0.000000   -0.146391    0.000000    0.000000   -0.131586    0.000000    0.000000   -0.277977    0.000807
   3     0.000000    0.000000   -0.146404    0.000000    0.000000   -0.131603    0.000000    0.000000   -0.278007    0.000096
   4     0.000000    0.000000   -0.146395    0.000000    0.000000   -0.131602    0.000000    0.000000   -0.277998    0.000012
   5     0.000000    0.000000   -0.146395    0.000000    0.000000   -0.131602    0.000000    0.000000   -0.277997    0.000001
-----------------------------------------------------------------------------------------------------------------------------
 
  FINAL CASPT2 RESULT:
 
      Reference energy:        -112.4142392285
      E2 (Non-variational):      -0.2779975173
      Shift correction:          -0.0044865587
      E2 (Variational):          -0.2824840760
      Total energy:            -112.6967233045
      Residual norm:              0.0000001678
      Reference weight:           0.85439
 
      Contributions to the CASPT2 correlation energy
      Active & Virtual Only:         -0.2779975173
      One Inactive Excited:           0.0000000000
      Two Inactive Excited:           0.0000000000
 
 
++ Denominators, etc.
--------------------------------------------------------------------------------------------------------------
 Report on small energy denominators, large coefficients, and large energy contributions.
CASE  SYMM ACTIVE-MIX  NON-ACTIVE INDICES          DENOMINATOR     RHS VALUE       COEFFICIENT     CONTRIBUTION
ATVX     1  Mu1.0001  Se1.014                      -0.07349952     -0.00006145     -0.00078455      0.00000005
ATVX     1  Mu1.0002  Se1.014                      -0.00669685     -0.00000139     -0.00000090      0.00000000
ATVX     1  Mu1.0003  Se1.014                      -0.00667818     -0.00000100     -0.00000065      0.00000000
ATVX     1  Mu1.0004  Se1.014                       0.20842086      0.00406781     -0.01569597     -0.00006385
ATVX     1  Mu1.0001  Se1.015                       0.14630291     -0.01834137      0.08521779     -0.00156301
ATVX     1  Mu1.0002  Se1.015                       0.21310558      0.00000023     -0.00000086     -0.00000000
ATVX     1  Mu1.0003  Se1.015                       0.21312425      0.00000018     -0.00000069     -0.00000000
ATVX     1  Mu1.0004  Se1.015                       0.42822329     -0.02429631      0.05382203     -0.00130768
ATVX     1  Mu1.0001  Se1.016                       0.19309638     -0.00000050      0.00000210     -0.00000000
ATVX     1  Mu1.0002  Se1.016                       0.25989905      0.06520654     -0.21694620     -0.01414631
ATVX     1  Mu1.0003  Se1.016                       0.25991772      0.00018184     -0.00060466     -0.00000011
ATVX     1  Mu1.0093  Se1.016                       1.82146265     -0.05260254      0.02817301     -0.00148197
ATVX     1  Mu1.0001  Se1.017                       0.19309674     -0.00000032      0.00000134     -0.00000000
ATVX     1  Mu1.0002  Se1.017                       0.25989941     -0.00018184      0.00060470     -0.00000011
ATVX     1  Mu1.0003  Se1.017                       0.25991808      0.06521278     -0.21695520     -0.01414825
ATVX     1  Mu1.0094  Se1.017                       1.82146902      0.05260317     -0.02817325     -0.00148200
ATVX     1  Mu1.0001  Se1.020                       0.54035428     -0.01578114      0.02803112     -0.00044236
ATVX     1  Mu1.0002  Se1.021                       0.66179916     -0.01819537      0.02666718     -0.00048522
ATVX     1  Mu1.0003  Se1.022                       0.66181826     -0.01820059      0.02667416     -0.00048549
ATVX     1  Mu1.0002  Se1.032                       2.05289726     -0.07058418      0.03372539     -0.00238048
ATVX     1  Mu1.0003  Se1.033                       2.05291609     -0.07059083      0.03372829     -0.00238091
--
 
   (Skipping property calculation,
    use PROP keyword to activate)
--
 
++ CASPT2 computation for group  15
 
********************************************************************************
 Multi-State initialization phase begins for group  15
--------------------------------------------------------------------------------
********************************************************************************
 Compute H0 matrices for state   15
--------------------------------------------------------------------------------
--------------------------------------------------------------------------------
 H0 matrices have been computed.
 
********************************************************************************
  CASPT2 EQUATION SOLUTION
--------------------------------------------------------------------------------
 
  Total nr of CASPT2 parameters:
   Before reduction:      240779
   After  reduction:      240196
 
 The contributions to the second order correlation energy in atomic units.
-----------------------------------------------------------------------------------------------------------------------------
  IT.      VJTU        VJTI        ATVX        AIVX        VJAI        BVAT        BJAT        BJAI        TOTAL       RNORM  
-----------------------------------------------------------------------------------------------------------------------------
   1     0.000000    0.000000   -0.106481    0.000000    0.000000   -0.121588    0.000000    0.000000   -0.228069    0.004576
   2     0.000000    0.000000   -0.106835    0.000000    0.000000   -0.121644    0.000000    0.000000   -0.228479    0.000449
   3     0.000000    0.000000   -0.106842    0.000000    0.000000   -0.121652    0.000000    0.000000   -0.228494    0.000050
   4     0.000000    0.000000   -0.106839    0.000000    0.000000   -0.121652    0.000000    0.000000   -0.228491    0.000006
-----------------------------------------------------------------------------------------------------------------------------
 
  FINAL CASPT2 RESULT:
 
      Reference energy:        -112.3943216127
      E2 (Non-variational):      -0.2284907182
      Shift correction:          -0.0007891446
      E2 (Variational):          -0.2292798628
      Total energy:            -112.6236014755
      Residual norm:              0.0000007241
      Reference weight:           0.93611
 
      Contributions to the CASPT2 correlation energy
      Active & Virtual Only:         -0.2284907182
      One Inactive Excited:           0.0000000000
      Two Inactive Excited:           0.0000000000
 
 
++ Denominators, etc.
--------------------------------------------------------------------------------------------------------------
 Report on small energy denominators, large coefficients, and large energy contributions.
CASE  SYMM ACTIVE-MIX  NON-ACTIVE INDICES          DENOMINATOR     RHS VALUE       COEFFICIENT     CONTRIBUTION
ATVX     1  Mu1.0001  Se1.014                      -0.08795222      0.00000026      0.00000124      0.00000000
ATVX     1  Mu1.0002  Se1.014                      -0.05579554      0.00000099      0.00000361      0.00000000
ATVX     1  Mu1.0003  Se1.014                      -0.05565426     -0.00000124     -0.00000454      0.00000000
ATVX     1  Mu1.0005  Se1.014                       0.66058447      0.02628695     -0.03857405     -0.00101399
ATVX     1  Mu1.0001  Se1.015                       0.11883663      0.00000009     -0.00000043     -0.00000000
ATVX     1  Mu1.0002  Se1.015                       0.15099330     -0.00000112      0.00000519     -0.00000000
ATVX     1  Mu1.0003  Se1.015                       0.15113459      0.00000140     -0.00000646     -0.00000000
ATVX     1  Mu1.0001  Se1.016                       0.16705547     -0.00000140      0.00000623     -0.00000000
ATVX     1  Mu1.0002  Se1.016                       0.19921215     -0.00015317      0.00061646     -0.00000009
ATVX     1  Mu1.0003  Se1.016                       0.19935344     -0.01803069      0.07245874     -0.00130648
ATVX     1  Mu1.0015  Se1.016                       1.02730532      0.02721685     -0.02611836     -0.00071086
ATVX     1  Mu1.0001  Se1.017                       0.16706089     -0.00000165      0.00000734     -0.00000000
ATVX     1  Mu1.0002  Se1.017                       0.19921757      0.01803287     -0.07249743     -0.00130734
ATVX     1  Mu1.0003  Se1.017                       0.19935885     -0.00015526      0.00062463     -0.00000010
ATVX     1  Mu1.0016  Se1.017                       1.02736365     -0.02723296      0.02613353     -0.00071169
ATVX     1  Mu1.0005  Se1.023                       1.38489404      0.04254989     -0.03025730     -0.00128744
--
 
   (Skipping property calculation,
    use PROP keyword to activate)
--
 
++ CASPT2 computation for group  16
 
********************************************************************************
 Multi-State initialization phase begins for group  16
--------------------------------------------------------------------------------
********************************************************************************
 Compute H0 matrices for state   16
--------------------------------------------------------------------------------
--------------------------------------------------------------------------------
 H0 matrices have been computed.
 
********************************************************************************
  CASPT2 EQUATION SOLUTION
--------------------------------------------------------------------------------
 
  Total nr of CASPT2 parameters:
   Before reduction:      240779
   After  reduction:      240196
 
 The contributions to the second order correlation energy in atomic units.
-----------------------------------------------------------------------------------------------------------------------------
  IT.      VJTU        VJTI        ATVX        AIVX        VJAI        BVAT        BJAT        BJAI        TOTAL       RNORM  
-----------------------------------------------------------------------------------------------------------------------------
   1     0.000000    0.000000   -0.106444    0.000000    0.000000   -0.121563    0.000000    0.000000   -0.228008    0.004573
   2     0.000000    0.000000   -0.106798    0.000000    0.000000   -0.121619    0.000000    0.000000   -0.228417    0.000448
   3     0.000000    0.000000   -0.106805    0.000000    0.000000   -0.121627    0.000000    0.000000   -0.228433    0.000050
   4     0.000000    0.000000   -0.106802    0.000000    0.000000   -0.121627    0.000000    0.000000   -0.228429    0.000006
-----------------------------------------------------------------------------------------------------------------------------
 
  FINAL CASPT2 RESULT:
 
      Reference energy:        -112.3943216121
      E2 (Non-variational):      -0.2284291551
      Shift correction:          -0.0007867284
      E2 (Variational):          -0.2292158835
      Total energy:            -112.6235374956
      Residual norm:              0.0000007092
      Reference weight:           0.93619
 
      Contributions to the CASPT2 correlation energy
      Active & Virtual Only:         -0.2284291551
      One Inactive Excited:           0.0000000000
      Two Inactive Excited:           0.0000000000
 
 
++ Denominators, etc.
--------------------------------------------------------------------------------------------------------------
 Report on small energy denominators, large coefficients, and large energy contributions.
CASE  SYMM ACTIVE-MIX  NON-ACTIVE INDICES          DENOMINATOR     RHS VALUE       COEFFICIENT     CONTRIBUTION
ATVX     1  Mu1.0001  Se1.014                      -0.09145318     -0.00000132     -0.00000632      0.00000000
ATVX     1  Mu1.0002  Se1.014                      -0.05564863     -0.00000063     -0.00000228      0.00000000
ATVX     1  Mu1.0003  Se1.014                      -0.05560586     -0.00000148     -0.00000541      0.00000000
ATVX     1  Mu1.0005  Se1.014                       0.66702481     -0.02746356      0.04003043     -0.00109938
ATVX     1  Mu1.0001  Se1.015                       0.11533567     -0.00000059      0.00000294     -0.00000000
ATVX     1  Mu1.0002  Se1.015                       0.15114022      0.00000069     -0.00000318     -0.00000000
ATVX     1  Mu1.0003  Se1.015                       0.15118299      0.00000165     -0.00000761     -0.00000000
ATVX     1  Mu1.0001  Se1.016                       0.16355657      0.00000084     -0.00000379     -0.00000000
ATVX     1  Mu1.0002  Se1.016                       0.19936112     -0.00148482      0.00597969     -0.00000888
ATVX     1  Mu1.0003  Se1.016                       0.19940390     -0.01795284      0.07215101     -0.00129532
ATVX     1  Mu1.0001  Se1.017                       0.16355788     -0.00000172      0.00000772     -0.00000000
ATVX     1  Mu1.0002  Se1.017                       0.19936242     -0.01794369      0.07212311     -0.00129415
ATVX     1  Mu1.0003  Se1.017                       0.19940520      0.00149288     -0.00601143     -0.00000897
ATVX     1  Mu1.0005  Se1.023                       1.39133438     -0.04265458      0.03020970     -0.00128858
--
 
   (Skipping property calculation,
    use PROP keyword to activate)
--
 
  Total CASPT2 energies:
::    CASPT2 Root  1     Total energy:   -113.21195942
::    CASPT2 Root  2     Total energy:   -112.90037289
::    CASPT2 Root  3     Total energy:   -112.90037330
::    CASPT2 Root  4     Total energy:   -112.84589582
::    CASPT2 Root  5     Total energy:   -112.84208227
::    CASPT2 Root  6     Total energy:   -112.84208424
::    CASPT2 Root  7     Total energy:   -112.76579870
::    CASPT2 Root  8     Total energy:   -112.73831373
::    CASPT2 Root  9     Total energy:   -112.73831511
::    CASPT2 Root 10     Total energy:   -112.68038298
::    CASPT2 Root 11     Total energy:   -112.68038245
::    CASPT2 Root 12     Total energy:   -112.70569183
::    CASPT2 Root 13     Total energy:   -112.70569257
::    CASPT2 Root 14     Total energy:   -112.69672330
::    CASPT2 Root 15     Total energy:   -112.62360148
::    CASPT2 Root 16     Total energy:   -112.62353750
 
++ Multi-State CASPT2 section:
********************************************************************************
  MULTI-STATE CASPT2 SECTION
--------------------------------------------------------------------------------
 
  Output diagonal energies have been shifted. Add   -113.000000000000     
 
  Effective Hamiltonian matrix (Symmetric):
 
                1               2               3               4               5
   1        -0.21195942
   2         0.00000177      0.09962711
   3         0.00000128      0.00000000      0.09962670
   4        -0.00000369      0.00000024     -0.00000033      0.15410418
   5        -0.00000010      0.00000002      0.00000007     -0.00000031      0.15791773
   6         0.00000009      0.00000007      0.00000006     -0.00000037     -0.00001051
   7         0.01657524     -0.00000244     -0.00000178     -0.00001769      0.00000000
   8        -0.00000302      0.00007426     -0.02479604     -0.00000032      0.00000007
   9         0.00000418      0.02479755      0.00007424     -0.00000019      0.00000002
  10         0.00000070     -0.00197648     -0.00004657      0.00000018     -0.00000004
  11        -0.00000048     -0.00004657      0.00197602      0.00000028     -0.00000024
  12        -0.00000048      0.00809320     -0.00003270     -0.00000021      0.00000004
  13        -0.00000035      0.00003272      0.00809240      0.00000030     -0.00000023
  14        -0.03070438     -0.00000008     -0.00000006     -0.00001256      0.00000128
  15         0.00000054     -0.00000054     -0.00000058     -0.00000263     -0.00890992
  16        -0.00000308      0.00000054     -0.00000057     -0.00000047     -0.01459176
 
                6               7               8               9              10
   6         0.15791576
   7        -0.00000001      0.23420130
   8         0.00000001      0.00000047      0.26168627
   9        -0.00000015     -0.00000065     -0.00000000      0.26168489
  10         0.00000023     -0.00000010      0.00001616     -0.00078778      0.31961702
  11        -0.00000008      0.00000007     -0.00078811     -0.00001617      0.00000001
  12        -0.00000022      0.00000046      0.00001659      0.00231592      0.01051884
[...]
          21  ( 2:1:   2/   4)   2u2220d0000       0.153292       0.023498
          25  ( 2:1:   6/   4)   2u22200000d       0.058799       0.003457
          39  ( 3:1:   8/   1)   222200u0d00      -0.058400       0.003411
          54  ( 3:1:   2/   2)   222udud0000      -0.138324       0.019134
          76  ( 3:1:   3/   3)   22u2d020000       0.182744       0.033395
         180  ( 3:1:   2/   8)   2u2d2ud0000      -0.074601       0.005565
         244  ( 3:1:   3/  11)   2ud22020000       0.104120       0.010841
         347  ( 4:1:   1/   1)   222uudd0000       0.071379       0.005095
         777  ( 5:1:   1/   5)   2220u2d0000      -0.101056       0.010212
         848  ( 5:1:   2/   6)   22udud20000       0.064354       0.004141
 
  The CI coefficients for the MIXED state nr.   3
--------------------------------------------------------------------------------
 CI COEFFICIENTS LARGER THAN  0.50D-01
  Occupation of active orbitals, and spin coupling
  of open shells. (u,d: Spin up or down).
  SGUGA info is (Midvert:IsyUp:UpperWalk/LowerWalk)
        Conf  SGUGA info        Occupation      Coefficient         Weight
           2  ( 2:1:   1/   1)   2222ud00000      -0.914174       0.835714
           3  ( 2:1:   2/   1)   2222u0d0000      -0.071344       0.005090
          20  ( 2:1:   1/   4)   2u222d00000       0.153292       0.023499
          24  ( 2:1:   5/   4)   2u2220000d0       0.058799       0.003457
          38  ( 3:1:   7/   1)   22220u00d00      -0.058400       0.003411
          53  ( 3:1:   1/   2)   222ud200000      -0.182743       0.033395
          75  ( 3:1:   2/   3)   22u2dud0000       0.138325       0.019134
         179  ( 3:1:   1/   8)   2u2d2200000      -0.104120       0.010841
         243  ( 3:1:   2/  11)   2ud22ud0000       0.074600       0.005565
         362  ( 4:1:   1/   2)   22u2udd0000       0.071379       0.005095
         847  ( 5:1:   1/   6)   22udu2d0000      -0.064354       0.004141
        1058  ( 5:1:   2/   9)   2202ud20000       0.101056       0.010212
 
  The CI coefficients for the MIXED state nr.   4
--------------------------------------------------------------------------------
 CI COEFFICIENTS LARGER THAN  0.50D-01
  Occupation of active orbitals, and spin coupling
  of open shells. (u,d: Spin up or down).
  SGUGA info is (Midvert:IsyUp:UpperWalk/LowerWalk)
        Conf  SGUGA info        Occupation      Coefficient         Weight
           9  ( 2:1:   2/   2)   222u20d0000       0.684366       0.468356
          14  ( 2:1:   1/   3)   22u22d00000       0.684647       0.468741
         138  ( 3:1:   2/   6)   22202ud0000      -0.065323       0.004267
         158  ( 3:1:   1/   7)   22ud2200000      -0.065356       0.004271
         160  ( 3:1:   3/   7)   22ud2020000       0.065326       0.004267
         222  ( 3:1:   2/  10)   22022ud0000       0.065358       0.004272
         497  ( 5:1:   1/   1)   222u02d0000      -0.063309       0.004008
         568  ( 5:1:   2/   2)   22u20d20000       0.063336       0.004011
 
  The CI coefficients for the MIXED state nr.   5
--------------------------------------------------------------------------------
 CI COEFFICIENTS LARGER THAN  0.50D-01
  Occupation of active orbitals, and spin coupling
  of open shells. (u,d: Spin up or down).
  SGUGA info is (Midvert:IsyUp:UpperWalk/LowerWalk)
        Conf  SGUGA info        Occupation      Coefficient         Weight
           9  ( 2:1:   2/   2)   222u20d0000      -0.672958       0.452872
          13  ( 2:1:   6/   2)   222u200000d      -0.069297       0.004802
          14  ( 2:1:   1/   3)   22u22d00000       0.672667       0.452481
          18  ( 2:1:   5/   3)   22u220000d0       0.069320       0.004805
          33  ( 3:1:   2/   1)   22220ud0000      -0.113064       0.012783
          96  ( 3:1:   2/   4)   2u22dud0000      -0.059522       0.003543
         138  ( 3:1:   2/   6)   22202ud0000       0.083900       0.007039
         158  ( 3:1:   1/   7)   22ud2200000      -0.068169       0.004647
         160  ( 3:1:   3/   7)   22ud2020000      -0.068195       0.004651
         222  ( 3:1:   2/  10)   22022ud0000       0.083873       0.007035
         497  ( 5:1:   1/   1)   222u02d0000       0.065632       0.004308
         568  ( 5:1:   2/   2)   22u20d20000       0.065606       0.004304
 
  The CI coefficients for the MIXED state nr.   6
--------------------------------------------------------------------------------
 CI COEFFICIENTS LARGER THAN  0.50D-01
  Occupation of active orbitals, and spin coupling
  of open shells. (u,d: Spin up or down).
  SGUGA info is (Midvert:IsyUp:UpperWalk/LowerWalk)
        Conf  SGUGA info        Occupation      Coefficient         Weight
           8  ( 2:1:   1/   2)   222u2d00000      -0.672823       0.452691
          12  ( 2:1:   5/   2)   222u20000d0      -0.069236       0.004794
          15  ( 2:1:   2/   3)   22u220d0000      -0.672820       0.452687
          19  ( 2:1:   6/   3)   22u2200000d      -0.069231       0.004793
          32  ( 3:1:   1/   1)   22220200000      -0.079949       0.006392
          34  ( 3:1:   3/   1)   22220020000       0.079950       0.006392
         137  ( 3:1:   1/   6)   22202200000       0.107527       0.011562
         223  ( 3:1:   3/  10)   22022020000      -0.107526       0.011562
         498  ( 5:1:   2/   1)   222u0d20000      -0.065621       0.004306
         567  ( 5:1:   1/   2)   22u202d0000       0.065620       0.004306
 
  The CI coefficients for the MIXED state nr.   7
--------------------------------------------------------------------------------
 CI COEFFICIENTS LARGER THAN  0.50D-01
  Occupation of active orbitals, and spin coupling
  of open shells. (u,d: Spin up or down).
  SGUGA info is (Midvert:IsyUp:UpperWalk/LowerWalk)
        Conf  SGUGA info        Occupation      Coefficient         Weight
           4  ( 2:1:   3/   1)   2222u00d000      -0.864563       0.747469
           8  ( 2:1:   1/   2)   222u2d00000      -0.156911       0.024621
          15  ( 2:1:   2/   3)   22u220d0000       0.156911       0.024621
          22  ( 2:1:   3/   4)   2u22200d000      -0.100983       0.010198
          37  ( 3:1:   6/   1)   22220002000       0.094475       0.008926
          56  ( 3:1:   4/   2)   222udu0d000      -0.183754       0.033765
          65  ( 3:1:  13/   2)   222ud00u0d0      -0.072997       0.005329
          78  ( 3:1:   5/   3)   22u2d0ud000       0.183754       0.033765
          91  ( 3:1:  18/   3)   22u2d00u00d       0.072997       0.005329
         182  ( 3:1:   4/   8)   2u2d2u0d000      -0.061601       0.003795
         246  ( 3:1:   5/  11)   2ud220ud000       0.061601       0.003795
         348  ( 4:1:   2/   1)   222uud0d000       0.101012       0.010203
         364  ( 4:1:   3/   2)   22u2u0dd000      -0.101012       0.010203
         779  ( 5:1:   3/   5)   2220u20d000      -0.094665       0.008962
         851  ( 5:1:   5/   6)   22uduudd000       0.072978       0.005326
        1062  ( 5:1:   6/   9)   2202u02d000      -0.094665       0.008961
 
  The CI coefficients for the MIXED state nr.   8
--------------------------------------------------------------------------------
 CI COEFFICIENTS LARGER THAN  0.50D-01
  Occupation of active orbitals, and spin coupling
  of open shells. (u,d: Spin up or down).
  SGUGA info is (Midvert:IsyUp:UpperWalk/LowerWalk)
        Conf  SGUGA info        Occupation      Coefficient         Weight
           7  ( 2:1:   6/   1)   2222u00000d       0.833449       0.694637
          21  ( 2:1:   2/   4)   2u2220d0000      -0.367346       0.134943
          36  ( 3:1:   5/   1)   222200ud000       0.063576       0.004042
          49  ( 3:1:  18/   1)   2222000u00d      -0.055206       0.003048
          54  ( 3:1:   2/   2)   222udud0000      -0.121818       0.014840
          64  ( 3:1:  12/   2)   222ud0u00d0      -0.052042       0.002708
          68  ( 3:1:  16/   2)   222udu0000d       0.124434       0.015484
          76  ( 3:1:   3/   3)   22u2d020000       0.172875       0.029886
          90  ( 3:1:  17/   3)   22u2d0u000d      -0.064433       0.004152
          94  ( 3:1:  21/   3)   22u2d000002      -0.061334       0.003762
         194  ( 3:1:  16/   8)   2u2d2u0000d       0.061403       0.003770
         258  ( 3:1:  17/  11)   2ud220u000d      -0.063720       0.004060
         357  ( 4:1:  11/   1)   222uud0000d      -0.061972       0.003841
         373  ( 4:1:  12/   2)   22u2u0d000d       0.087521       0.007660
         817  ( 5:1:  41/   5)   2220u20000d       0.090055       0.008110
         889  ( 5:1:  43/   6)   22uduud000d      -0.073887       0.005459
        1100  ( 5:1:  44/   9)   2202u02000d       0.092700       0.008593
        8557  ( 7:1:  11/   1)   22uuudd000d       0.050771       0.002578
 
  The CI coefficients for the MIXED state nr.   9
--------------------------------------------------------------------------------
 CI COEFFICIENTS LARGER THAN  0.50D-01
  Occupation of active orbitals, and spin coupling
  of open shells. (u,d: Spin up or down).
  SGUGA info is (Midvert:IsyUp:UpperWalk/LowerWalk)
        Conf  SGUGA info        Occupation      Coefficient         Weight
           6  ( 2:1:   5/   1)   2222u0000d0      -0.833442       0.694625
          20  ( 2:1:   1/   4)   2u222d00000       0.367355       0.134950
          35  ( 3:1:   4/   1)   22220u0d000      -0.063578       0.004042
          44  ( 3:1:  13/   1)   2222000u0d0       0.055206       0.003048
          53  ( 3:1:   1/   2)   222ud200000       0.172884       0.029889
          63  ( 3:1:  11/   2)   222udu000d0      -0.064435       0.004152
          67  ( 3:1:  15/   2)   222ud000020      -0.061335       0.003762
          75  ( 3:1:   2/   3)   22u2dud0000      -0.121823       0.014841
          85  ( 3:1:  12/   3)   22u2d0u00d0       0.124434       0.015484
          89  ( 3:1:  16/   3)   22u2du0000d      -0.052040       0.002708
         189  ( 3:1:  11/   8)   2u2d2u000d0      -0.063720       0.004060
         253  ( 3:1:  12/  11)   2ud220u00d0       0.061403       0.003770
         353  ( 4:1:   7/   1)   222uud000d0       0.087522       0.007660
         369  ( 4:1:   8/   2)   22u2u0d00d0      -0.061973       0.003841
         797  ( 5:1:  21/   5)   2220u2000d0      -0.092700       0.008593
         869  ( 5:1:  23/   6)   22uduud00d0       0.068899       0.004747
        1080  ( 5:1:  24/   9)   2202u0200d0      -0.090054       0.008110
        8551  ( 7:1:   5/   1)   22uuudd00d0      -0.050771       0.002578
 
  The CI coefficients for the MIXED state nr.  10
--------------------------------------------------------------------------------
 CI COEFFICIENTS LARGER THAN  0.50D-01
  Occupation of active orbitals, and spin coupling
  of open shells. (u,d: Spin up or down).
  SGUGA info is (Midvert:IsyUp:UpperWalk/LowerWalk)
        Conf  SGUGA info        Occupation      Coefficient         Weight
           6  ( 2:1:   5/   1)   2222u0000d0       0.414348       0.171685
          20  ( 2:1:   1/   4)   2u222d00000       0.767376       0.588865
          21  ( 2:1:   2/   4)   2u2220d0000       0.061258       0.003753
          24  ( 2:1:   5/   4)   2u2220000d0      -0.080458       0.006473
          53  ( 3:1:   1/   2)   222ud200000       0.304618       0.092792
          75  ( 3:1:   2/   3)   22u2dud0000      -0.236993       0.056166
         179  ( 3:1:   1/   8)   2u2d2200000      -0.061623       0.003797
         378  ( 4:1:   2/   3)   2u22ud0d000      -0.056855       0.003232
         638  ( 5:1:   2/   3)   2u220d20000       0.065503       0.004291
        2738  ( 5:1:   2/  33)   2u022d20000       0.063163       0.003990
 
  The CI coefficients for the MIXED state nr.  11
--------------------------------------------------------------------------------
 CI COEFFICIENTS LARGER THAN  0.50D-01
  Occupation of active orbitals, and spin coupling
  of open shells. (u,d: Spin up or down).
  SGUGA info is (Midvert:IsyUp:UpperWalk/LowerWalk)
        Conf  SGUGA info        Occupation      Coefficient         Weight
           7  ( 2:1:   6/   1)   2222u00000d       0.414337       0.171675
          20  ( 2:1:   1/   4)   2u222d00000      -0.061258       0.003753
          21  ( 2:1:   2/   4)   2u2220d0000       0.767380       0.588872
          25  ( 2:1:   6/   4)   2u22200000d      -0.080463       0.006474
          54  ( 3:1:   2/   2)   222udud0000       0.236993       0.056166
          76  ( 3:1:   3/   3)   22u2d020000      -0.304623       0.092795
         244  ( 3:1:   3/  11)   2ud22020000       0.061623       0.003797
         379  ( 4:1:   3/   3)   2u22u0dd000      -0.056854       0.003232
         637  ( 5:1:   1/   3)   2u2202d0000      -0.065503       0.004291
        1967  ( 5:1:   1/  22)   2u2022d0000      -0.063163       0.003990
 
  The CI coefficients for the MIXED state nr.  12
--------------------------------------------------------------------------------
 CI COEFFICIENTS LARGER THAN  0.50D-01
  Occupation of active orbitals, and spin coupling
  of open shells. (u,d: Spin up or down).
  SGUGA info is (Midvert:IsyUp:UpperWalk/LowerWalk)
        Conf  SGUGA info        Occupation      Coefficient         Weight
           4  ( 2:1:   3/   1)   2222u00d000      -0.215567       0.046469
           5  ( 2:1:   4/   1)   2222u000d00      -0.093491       0.008741
           8  ( 2:1:   1/   2)   222u2d00000       0.468265       0.219272
          12  ( 2:1:   5/   2)   222u20000d0      -0.360739       0.130132
          15  ( 2:1:   2/   3)   22u220d0000      -0.468267       0.219274
          19  ( 2:1:   6/   3)   22u2200000d       0.360758       0.130146
          22  ( 2:1:   3/   4)   2u22200d000       0.363758       0.132320
          23  ( 2:1:   4/   4)   2u222000d00       0.067999       0.004624
         137  ( 3:1:   1/   6)   22202200000      -0.065090       0.004237
         159  ( 3:1:   2/   7)   22ud2ud0000       0.055525       0.003083
         223  ( 3:1:   3/  10)   22022020000      -0.065092       0.004237
        1897  ( 5:1:   1/  21)   22u022d0000       0.102168       0.010438
        2108  ( 5:1:   2/  24)   220u2d20000      -0.102167       0.010438
 
  The CI coefficients for the MIXED state nr.  13
--------------------------------------------------------------------------------
 CI COEFFICIENTS LARGER THAN  0.50D-01
  Occupation of active orbitals, and spin coupling
  of open shells. (u,d: Spin up or down).
  SGUGA info is (Midvert:IsyUp:UpperWalk/LowerWalk)
        Conf  SGUGA info        Occupation      Coefficient         Weight
          10  ( 2:1:   3/   2)   222u200d000       0.055332       0.003062
          16  ( 2:1:   3/   3)   22u2200d000      -0.954218       0.910532
          36  ( 3:1:   5/   1)   222200ud000       0.081465       0.006637
         225  ( 3:1:   5/  10)   220220ud000      -0.079810       0.006370
         569  ( 5:1:   3/   2)   22u2020d000       0.068954       0.004755
         572  ( 5:1:   6/   2)   22u2002d000       0.086523       0.007486
        1899  ( 5:1:   3/  21)   22u0220d000       0.083279       0.006935
        2110  ( 5:1:   4/  24)   220u2dud000      -0.073041       0.005335
 
  The CI coefficients for the MIXED state nr.  14
--------------------------------------------------------------------------------
 CI COEFFICIENTS LARGER THAN  0.50D-01
  Occupation of active orbitals, and spin coupling
  of open shells. (u,d: Spin up or down).
  SGUGA info is (Midvert:IsyUp:UpperWalk/LowerWalk)
        Conf  SGUGA info        Occupation      Coefficient         Weight
          10  ( 2:1:   3/   2)   222u200d000      -0.954218       0.910532
          16  ( 2:1:   3/   3)   22u2200d000      -0.055332       0.003062
          35  ( 3:1:   4/   1)   22220u0d000      -0.081465       0.006637
         140  ( 3:1:   4/   6)   22202u0d000       0.079811       0.006370
         499  ( 5:1:   3/   1)   222u020d000       0.086522       0.007486
         502  ( 5:1:   6/   1)   222u002d000       0.068954       0.004755
        1901  ( 5:1:   5/  21)   22u02udd000       0.073292       0.005372
        2112  ( 5:1:   6/  24)   220u202d000      -0.083278       0.006935
 
  The CI coefficients for the MIXED state nr.  15
--------------------------------------------------------------------------------
 CI COEFFICIENTS LARGER THAN  0.50D-01
  Occupation of active orbitals, and spin coupling
  of open shells. (u,d: Spin up or down).
  SGUGA info is (Midvert:IsyUp:UpperWalk/LowerWalk)
        Conf  SGUGA info        Occupation      Coefficient         Weight
           9  ( 2:1:   2/   2)   222u20d0000       0.070149       0.004921
          12  ( 2:1:   5/   2)   222u20000d0       0.258086       0.066608
          13  ( 2:1:   6/   2)   222u200000d      -0.613225       0.376044
          14  ( 2:1:   1/   3)   22u22d00000      -0.070189       0.004927
          18  ( 2:1:   5/   3)   22u220000d0       0.613556       0.376451
          19  ( 2:1:   6/   3)   22u2200000d       0.258066       0.066598
          43  ( 3:1:  12/   1)   222200u00d0      -0.051735       0.002676
          47  ( 3:1:  16/   1)   22220u0000d      -0.051697       0.002673
          57  ( 3:1:   5/   2)   222ud0ud000      -0.052076       0.002712
          77  ( 3:1:   4/   3)   22u2du0d000       0.052105       0.002715
         152  ( 3:1:  16/   6)   22202u0000d       0.074071       0.005487
         168  ( 3:1:  11/   7)   22ud2u000d0      -0.067956       0.004618
         174  ( 3:1:  17/   7)   22ud20u000d      -0.067924       0.004614
         232  ( 3:1:  12/  10)   220220u00d0       0.074112       0.005493
         537  ( 5:1:  41/   1)   222u020000d       0.058338       0.003403
         540  ( 5:1:  44/   1)   222u002000d       0.050507       0.002551
         587  ( 5:1:  21/   2)   22u202000d0      -0.050534       0.002554
         590  ( 5:1:  24/   2)   22u200200d0      -0.058371       0.003407
 
  The CI coefficients for the MIXED state nr.  16
--------------------------------------------------------------------------------
 CI COEFFICIENTS LARGER THAN  0.50D-01
  Occupation of active orbitals, and spin coupling
  of open shells. (u,d: Spin up or down).
  SGUGA info is (Midvert:IsyUp:UpperWalk/LowerWalk)
        Conf  SGUGA info        Occupation      Coefficient         Weight
           8  ( 2:1:   1/   2)   222u2d00000       0.070106       0.004915
          12  ( 2:1:   5/   2)   222u20000d0      -0.613420       0.376284
          13  ( 2:1:   6/   2)   222u200000d      -0.258000       0.066564
          15  ( 2:1:   2/   3)   22u220d0000       0.070116       0.004916
          18  ( 2:1:   5/   3)   22u220000d0       0.258139       0.066636
          19  ( 2:1:   6/   3)   22u2200000d      -0.613372       0.376225
          42  ( 3:1:  11/   1)   22220u000d0      -0.051719       0.002675
          48  ( 3:1:  17/   1)   222200u000d       0.051715       0.002674
          56  ( 3:1:   4/   2)   222udu0d000      -0.052093       0.002714
          78  ( 3:1:   5/   3)   22u2d0ud000      -0.052093       0.002714
         147  ( 3:1:  11/   6)   22202u000d0       0.097265       0.009461
         237  ( 3:1:  17/  10)   220220u000d      -0.097258       0.009459
         517  ( 5:1:  21/   1)   222u02000d0       0.062488       0.003905
         610  ( 5:1:  44/   2)   22u2002000d       0.062484       0.003904
        1937  ( 5:1:  41/  21)   22u0220000d       0.052768       0.002784
        2130  ( 5:1:  24/  24)   220u20200d0      -0.052770       0.002785
 
--
 
--- Stop Module: caspt2 at Fri Jul 15 20:03:22 2022 /rc=_RC_ALL_IS_WELL_ ---
*** files: xmldump
    saved to directory /projects/academic/cyberwksp21/Students/jstetzler/Project/OpenMOLCAS_PEC_Calcuation/More_Excited_States/Geom_1.128300
--- Module caspt2 spent 1 hour 23 minutes 26 seconds ---

.##################.
.# Happy landing! #.
.##################.

    Timing: Wall=5006.82 User=4975.18 System=12.85
