   This run of MOLCAS is using the pymolcas driver

                             OPE
                             OPE          NMOL  CASOP  ENMOLC A   SO
                 OPE        NMOLC        AS  OP EN  MO LC     AS  OP
                OPENM       OL CA        SO  PE NM  OL CA     SOP EN
                OP EN      MO   LC       AS  OP ENMOL  CASO   PENMOL
                OP  EN     MO   LC       AS  OP EN     MO     LC ASO
               OP   E  NMOL  C  AS       OP  EN MO     LC     AS  OP
               OP  E   NMO   LC AS        OPEN  MO     LCASOP EN   M
               O  PEN   MO  LCA  SO
            OPE   NMO   L   CAS    OP
        OPENMOL  CASOP     ENMOL   CASOPE
     OPENMOLCA   SOPENMOLCASOPEN   MOLCASOPE
    OPENMOLCAS   OP           EN   MOL    CAS
    OPENMOLCAS       OP  ENM        O     LCA
    OPENMOLCAS    OPEN  MOLCASO     P  E  NMO
    OPENMOLCAS     OP               E  N  MOL
    OPENMOLCA   SO           PENM   O  L  CAS    OPEN    MO    LCAS
    OPENMOLCA   SOP           ENM   O  L  CAS   OP  EN  MOLC  AS   O
    OPENMOLCA   SOPE           NM      O  LCA   S      OP  EN MO
    OPENMOLC                AS         O  PEN   M      OL  CA  SOPE
    OPENMO        LCASOPE  NMOL        C  ASO   P      ENMOLC     AS
    OPE     NMO      LCA  SO     P     E   NM   OL  CA SO  PE N   MO
          OPENMOLCA            SOPE   NMO        LCAS  O    P  ENMO
     OPENMOLCASOPENMOLCASOPENMOLCASOPENMOLCA
        OPENMOLCASOPENMOLCASOPENMOLCASOPE
            OPENMOLCASOPENMOLCASOPENM
               OPENMOLCASOPENMOLCA        version:
                   OPENMOLCASO
                       OPE                tag:

 OpenMolcas is free software; you can redistribute it and/or modify it
 under the terms of the GNU Lesser General Public License version 2.1.
 OpenMolcas is distributed in the hope that it will be useful, but it
 is provided "as is" and without any express or implied warranties.
 For more details see the full text of the license in the file
 LICENSE or in <http://www.gnu.org/licenses/>.

                 Copyright (C) The OpenMolcas Authors
           For the author list and the recommended citation,
                   consult the file CONTRIBUTORS.md

           *************************************************
           * pymolcas version py2.18                       *
           *   build 603b35e74725da5e9c3ba4c5da34d86f      *
           *   (after the EMIL interpreter by V. Veryazov) *
           *************************************************

configuration info
------------------
Host name: manganese.itc.univie.ac.at (Linux)
C Compiler ID: Intel
C flags: -std=gnu99
Fortran Compiler ID: Intel
Fortran flags: -fpp -i8 -r8 -heap-arrays
Definitions: _MOLCAS_;_I8_;_LINUX_
Parallel: OFF (GA=OFF)


   -------------------------------------------------------------------------------------------------------------------------------------------------
  |
  |           Project: MOLCAS
  |    Submitted from: /projects/academic/cyberwksp21/Students/jstetzler/Project/OpenMOLCAS_PEC_Calcuation/More_Excited_States/Geom_1.128300
  |      Scratch area: /projects/academic/cyberwksp21/Students/jstetzler/Project/OpenMOLCAS_PEC_Calcuation/More_Excited_States/Geom_1.128300/scratch
  |   Save outputs to: /projects/academic/cyberwksp21/Students/jstetzler/Project/OpenMOLCAS_PEC_Calcuation/More_Excited_States/Geom_1.128300
  |            Molcas: /projects/academic/cyberwksp21/Software/openmolcas_V21.10
  |
  | Scratch area is empty
  |
  |    MOLCAS_DRIVER = /projects/academic/cyberwksp21/Software/openmolcas_V21.10/bin/pymolcas
  |    MOLCAS_MOLDEN = ON
  |    MOLCAS_NPROCS = 1
  |    MOLCAS_SOURCE = /projects/academic/cyberwksp21/Software/openmolcas_V21.10/
  | MOLCAS_STRUCTURE = 0
  |
   -------------------------------------------------------------------------------------------------------------------------------------------------

++ ---------   Input file   ---------

&GATEWAY
Coord=CO_eq.xyz
Group=nosym
Basis=ANO-R3

&SEWARD

&SCF

-- ----------------------------------

--- Start Module: gateway at Thu Jul 14 13:38:48 2022 ---
 
()()()()()()()()()()()()()()()()()()()()()()()()()()()()()()()()()()()()()()()()()()()()()()()()()()

                                              &GATEWAY

                                   only a single process is used
                       available to each process: 2.0 GB of memory, 1 thread?
                                             pid: 17983
()()()()()()()()()()()()()()()()()()()()()()()()()()()()()()()()()()()()()()()()()()()()()()()()()()
 
 
++    Symmetry information:
      ---------------------
 
                    Character Table for C1 
 
                             E  
                    a        1  x, y, xy, Rz, z, xz, Ry, yz, Rx, I
--
 
 
++    Basis set information:
      ----------------------
 
 
      Basis set label: C.ANO-R...4S4P2D1F.
 
      Electronic valence basis set:
      ------------------
      Associated Effective Charge   6.000000 au
      Associated Actual Charge      6.000000 au
      Nuclear Model: Finite nucleus - Gaussian distribution
        Gaussian exponent, Xi/bohr**(-2):  0.68077E+09
 
      Shell  nPrim  nBasis  Cartesian Spherical Contaminant
         s      12       4        X                  
         p       7       4        X                  
         d       3       2                 X         
         f       2       1                 X         
 
 
      Basis set label: O.ANO-R...4S4P2D1F.
 
      Electronic valence basis set:
      ------------------
      Associated Effective Charge   8.000000 au
      Associated Actual Charge      8.000000 au
      Nuclear Model: Finite nucleus - Gaussian distribution
        Gaussian exponent, Xi/bohr**(-2):  0.58631E+09
 
      Shell  nPrim  nBasis  Cartesian Spherical Contaminant
         s      13       4        X                  
         p       8       4        X                  
         d       4       2                 X         
         f       3       1                 X         
--
 
 
++    Molecular structure info:
      -------------------------
 
                    ************************************************ 
                    **** Cartesian Coordinates / Bohr, Angstrom **** 
                    ************************************************ 
 
     Center  Label                x              y              z                     x              y              z
        1      C1               0.000000       0.000000       0.000000              0.000000       0.000000       0.000000
        2      O2               0.000000       0.000000       2.132178              0.000000       0.000000       1.128300
--
 
 
            Nuclear Potential Energy             22.51219190 au
 
--- Stop Module: gateway at Thu Jul 14 13:38:54 2022 /rc=_RC_ALL_IS_WELL_ ---
*** files: xmldump
    saved to directory /projects/academic/cyberwksp21/Students/jstetzler/Project/OpenMOLCAS_PEC_Calcuation/More_Excited_States/Geom_1.128300
--- Module gateway spent 5 seconds ---

--- Start Module: seward at Thu Jul 14 13:38:54 2022 ---
 
()()()()()()()()()()()()()()()()()()()()()()()()()()()()()()()()()()()()()()()()()()()()()()()()()()

                                              &SEWARD

                                   only a single process is used
                       available to each process: 2.0 GB of memory, 1 thread?
                                             pid: 18012
()()()()()()()()()()()()()()()()()()()()()()()()()()()()()()()()()()()()()()()()()()()()()()()()()()
 
               SEWARD will generate:
                  Multipole Moment integrals up to order  2
                  Kinetic Energy integrals
                  Nuclear Attraction integrals (finite nuclei - Gaussian type)
                  One-Electron Hamiltonian integrals
                  Velocity integrals
                  Relativistic X2C integrals
                  Orbital angular momentum around ( 0.0000  0.0000  1.2182 )
                  Velocity quadrupole around ( 0.0000  0.0000  1.2182 )
                  Atomic mean-field integrals
                  Two-Electron Repulsion integrals
 
                   Integrals are discarded if absolute value <: 0.10E-13
                   Integral cutoff threshold is set to       <: 0.10E-15
 
            Nuclear Potential Energy             22.51219190 au
 
 
      Basis set specifications :
      Symmetry species         a  
      Basis functions           66
 
 
  Input file to MOLDEN was generated!
 
 ###############################################################################
 ###############################################################################
 ###                                                                         ###
 ###                                                                         ###
 ###    WARNING: RunFile label nBas                                          ###
 ###    was used       51 times                                              ###
 ###                                                                         ###
 ###                                                                         ###
 ###############################################################################
 ###############################################################################
--- Stop Module: seward at Thu Jul 14 13:39:11 2022 /rc=_RC_ALL_IS_WELL_ ---
*** files: MOLCAS.GssOrb MOLCAS.guessorb.h5 MOLCAS.guessorb.molden xmldump
    saved to directory /projects/academic/cyberwksp21/Students/jstetzler/Project/OpenMOLCAS_PEC_Calcuation/More_Excited_States/Geom_1.128300
--- Module seward spent 16 seconds ---

*** symbolic link created: INPORB -> MOLCAS.GssOrb
--- Start Module: scf at Thu Jul 14 13:39:11 2022 ---
 
()()()()()()()()()()()()()()()()()()()()()()()()()()()()()()()()()()()()()()()()()()()()()()()()()()

                                                &SCF

                                   only a single process is used
                       available to each process: 2.0 GB of memory, 1 thread?
                                             pid: 18051
()()()()()()()()()()()()()()()()()()()()()()()()()()()()()()()()()()()()()()()()()()()()()()()()()()
 
++    Input section:
      --------------
 
      Header of the integral files:
      
       Integrals generated by Gateway/Seward, Thu Jul 14 13:38:56 2022
 
 
      Cartesian coordinates in Angstrom:
      -----------------------------------------------------
      No.  Label        X            Y            Z        
      -----------------------------------------------------
       1   C1         0.00000000   0.00000000   0.00000000
       2   O2         0.00000000   0.00000000   1.12830000
      -----------------------------------------------------
      Nuclear repulsion energy =   22.51219190
--
 
++    Orbital specifications:
      -----------------------
 
      Symmetry species               1
                                     a
      Frozen orbitals                0
      Occupied orbitals              7
      Secondary orbitals            59
      Deleted orbitals               0
      Total number of orbitals      66
      Number of basis functions     66
--
 
      Molecular charge                           0.000
 
++    Optimization specifications:
      ----------------------------
 
      SCF Algorithm: Conventional
      Minimized density differences are used
      Number of density matrices in core                5
      Maximum number of NDDO SCF iterations           400
      Maximum number of HF SCF iterations             400
      Threshold for SCF energy change            0.10E-08
      Threshold for density matrix               0.10E-03
      Threshold for Fock matrix                  0.15E-03
      Threshold for linear dependence            0.10E-08
      Threshold at which DIIS is turned on       0.15E+00
      Threshold at which QNR/C2DIIS is turned on 0.75E-01
      Threshold for Norm(delta) (QNR/C2DIIS)     0.20E-04
      DIIS extrapolation of the SCF procedure
      All orbitals punched on: SCFORB
--
 
      Input vectors read from INPORB
      Orbital file label: *Guess orbitals
 
 
++ Convergence information
                                   SCF        iterations: Energy and convergence statistics
 
Iter     Tot. SCF        One-elec.       Two-elec.     Energy      Max Dij or  Max Fij      DNorm      TNorm      AccCon     Time
         Energy          Energy          Energy        Change      Delta Norm                                                in Sec.
   1  -112.619203559  -196.452099046    61.320703585   0.00E+00    0.16E+00*   0.11E+00*    0.53E+01   0.65E+02   None         0.
   2  -112.840483464  -198.981062338    63.628386971  -0.22E+00*   0.43E-01*   0.35E-01*    0.93E+00   0.66E+02   EDIIS        0.
   3  -112.850696238  -198.087921856    62.725033716  -0.10E-01*   0.22E-01*   0.11E-01*    0.24E+00   0.66E+02   EDIIS        0.
   4  -112.851525234  -198.472131883    63.108414746  -0.83E-03*   0.56E-02*   0.56E-02*    0.83E-01   0.66E+02   c2DIIS       0.
   5  -112.852226147  -198.321307029    62.956888980  -0.70E-03*   0.31E-02*   0.11E-02*    0.19E-01   0.66E+02   QNRc2DIIS    0.
   6  -112.852241038  -198.329044188    62.964611248  -0.15E-04*   0.13E-02*   0.10E-02*    0.38E-02   0.66E+02   QNRc2DIIS    0.
   7  -112.852246249  -198.318604283    62.954166132  -0.52E-05*   0.21E-03*   0.11E-03     0.39E-03   0.66E+02   QNRc2DIIS    0.
   8  -112.852246390  -198.321433467    62.956995175  -0.14E-06*   0.52E-04*   0.25E-04     0.64E-04   0.66E+02   QNRc2DIIS    0.
   9  -112.852246400  -198.321110963    62.956672661  -0.10E-07*   0.26E-04*   0.72E-05     0.24E-04   0.66E+02   QNRc2DIIS    0.
  10  -112.852246401  -198.321075192    62.956636888  -0.11E-08*   0.26E-05    0.68E-06     0.15E-03   0.66E+02   QNRc2DIIS    0.
  11  -112.852246401  -198.321079494    62.956641191  -0.13E-10    0.47E-06    0.17E-06     0.21E-03   0.66E+02   QNRc2DIIS    0.
 
       Convergence after 11 Macro Iterations
--
 
 *****************************************************************************************************************************
 *                                                                                                                           *
 *                                             SCF/KS-DFT Program, Final results                                             *
 *                                                                                                                           *
 *                                                                                                                           *
 *                                                                                                                           *
 *                                                       Final Results                                                       *
 *                                                                                                                           *
 *****************************************************************************************************************************
 
::    Total SCF energy                               -112.8522464014
      One-electron energy                            -198.3210794942
      Two-electron energy                              62.9566411905
      Nuclear repulsion energy                         22.5121919023
      Kinetic energy (interpolated)                   113.2288650135
      Virial theorem                                    0.9966738286
      Total spin, S(S+1)                                0.0000000000
      Total spin, S                                     0.0000000000
      Max non-diagonal density matrix element           0.0000003824
      Max non-diagonal Fock matrix element              0.0000000507
 
 
      All orbitals with orbital energies smaller than  E(LUMO)+0.5 are printed
 
++    Molecular orbitals:
      -------------------
 
      Title: SCF orbitals

      Molecular orbitals for symmetry species 1: a  
 
          Orbital            1         2         3         4         5         6         7         8         9        10    
          Energy          -20.6788  -11.3640   -1.5227   -0.8045   -0.6398   -0.6398   -0.5543    0.1150    0.1150    0.1778
          Occ. No.          2.0000    2.0000    2.0000    2.0000    2.0000    2.0000    2.0000    0.0000    0.0000    0.0000
 
        1 C1     1s         0.0000    0.9991   -0.0556    0.0490   -0.0000   -0.0000    0.0345    0.0000   -0.0000   -0.1225
        2 C1     2s         0.0011   -0.0008    0.2434   -0.3278   -0.0000   -0.0000    0.7892    0.0000   -0.0000   -0.8900
        3 C1     3s         0.0010   -0.0000   -0.0495    0.0824   -0.0000   -0.0000    0.1138    0.0000   -0.0000   -0.5094
        4 C1     4s         0.0002    0.0004   -0.0073    0.0151   -0.0000   -0.0000    0.0202    0.0000   -0.0000   -0.1180
        5 C1     2px       -0.0000   -0.0000   -0.0000    0.0000    0.3065    0.2036    0.0000    0.0051   -0.9472   -0.0000
        6 C1     3px       -0.0000   -0.0000    0.0000    0.0000   -0.0221   -0.0147    0.0000    0.0037   -0.6813    0.0000
        7 C1     4px        0.0000    0.0000    0.0000    0.0000    0.0047    0.0031   -0.0000    0.0017   -0.3069    0.0000
        8 C1     5px       -0.0000    0.0000    0.0000    0.0000    0.0003    0.0002    0.0000    0.0007   -0.1273    0.0000
        9 C1     2py        0.0000    0.0000    0.0000    0.0000   -0.2036    0.3065    0.0000   -0.9472   -0.0051   -0.0000
       10 C1     3py        0.0000    0.0000    0.0000    0.0000    0.0147   -0.0221   -0.0000   -0.6813   -0.0037   -0.0000
       11 C1     4py       -0.0000   -0.0000   -0.0000   -0.0000   -0.0031    0.0047   -0.0000   -0.3069   -0.0017   -0.0000
       12 C1     5py       -0.0000   -0.0000   -0.0000    0.0000   -0.0002    0.0003   -0.0000   -0.1273   -0.0007   -0.0000
       13 C1     2pz        0.0005   -0.0006    0.1935   -0.0413    0.0000    0.0000   -0.5636   -0.0000   -0.0000    0.1688
       14 C1     3pz        0.0005   -0.0009   -0.0693    0.0894   -0.0000   -0.0000    0.0470    0.0000    0.0000   -0.0069
       15 C1     4pz        0.0000    0.0014    0.0117   -0.0121   -0.0000    0.0000   -0.0174    0.0000    0.0000    0.0181
       16 C1     5pz       -0.0001   -0.0011    0.0006   -0.0017   -0.0000   -0.0000   -0.0010    0.0000    0.0000    0.0352
       17 C1     3d2-       0.0000   -0.0000   -0.0000   -0.0000   -0.0000   -0.0000   -0.0000   -0.0000   -0.0000    0.0000
       18 C1     4d2-       0.0000    0.0000   -0.0000   -0.0000   -0.0000   -0.0000    0.0000   -0.0000   -0.0000    0.0000
       19 C1     3d1-       0.0000    0.0000    0.0000    0.0000   -0.0344    0.0518    0.0000    0.0226    0.0001    0.0000
       20 C1     4d1-       0.0000    0.0000    0.0000    0.0000    0.0007   -0.0010    0.0000   -0.0088   -0.0000    0.0000
       21 C1     3d0        0.0003    0.0000    0.0391   -0.0013    0.0000    0.0000   -0.0330   -0.0000   -0.0000    0.0072
       22 C1     4d0        0.0001   -0.0002   -0.0122    0.0188    0.0000    0.0000    0.0092   -0.0000   -0.0000    0.0014
       23 C1     3d1+      -0.0000   -0.0000   -0.0000    0.0000    0.0518    0.0344    0.0000   -0.0001    0.0226    0.0000
       24 C1     4d1+      -0.0000   -0.0000    0.0000    0.0000   -0.0010   -0.0007    0.0000    0.0000   -0.0088   -0.0000
       25 C1     3d2+       0.0000   -0.0000   -0.0000   -0.0000    0.0000    0.0000    0.0000   -0.0000   -0.0000   -0.0000
       26 C1     4d2+       0.0000   -0.0000   -0.0000   -0.0000   -0.0000    0.0000   -0.0000    0.0000   -0.0000   -0.0000
       27 C1     4f3-       0.0000   -0.0000   -0.0000   -0.0000    0.0000    0.0000   -0.0000    0.0000   -0.0000    0.0000
       28 C1     4f2-       0.0000   -0.0000   -0.0000    0.0000    0.0000   -0.0000   -0.0000   -0.0000    0.0000    0.0000
       29 C1     4f1-       0.0000    0.0000    0.0000    0.0000   -0.0071    0.0107    0.0000    0.0105    0.0001   -0.0000
       30 C1     4f0        0.0002    0.0000    0.0088   -0.0042   -0.0000    0.0000   -0.0040   -0.0000   -0.0000   -0.0015
       31 C1     4f1+      -0.0000   -0.0000   -0.0000    0.0000    0.0107    0.0071    0.0000   -0.0001    0.0105    0.0000
       32 C1     4f2+       0.0000    0.0000    0.0000    0.0000    0.0000   -0.0000   -0.0000    0.0000   -0.0000   -0.0000
       33 C1     4f3+       0.0000    0.0000    0.0000    0.0000   -0.0000   -0.0000   -0.0000   -0.0000   -0.0000   -0.0000
       34 O2     1s         0.9998   -0.0001   -0.0299    0.0124   -0.0000    0.0000    0.0066   -0.0000    0.0000    0.0475
       35 O2     2s        -0.0003    0.0032    0.7329    0.4961   -0.0000    0.0000   -0.0231   -0.0000    0.0000    0.3732
       36 O2     3s        -0.0012    0.0004    0.0093   -0.0176    0.0000    0.0000    0.0218   -0.0000   -0.0000    1.5210
       37 O2     4s         0.0004   -0.0007    0.0048   -0.0172    0.0000   -0.0000   -0.0099   -0.0000   -0.0000    0.0288
       38 O2     2px        0.0000    0.0000    0.0000    0.0000    0.6542    0.4346    0.0000   -0.0034    0.6389    0.0000
       39 O2     3px        0.0000    0.0000   -0.0000   -0.0000    0.0460    0.0305    0.0000   -0.0018    0.3350    0.0000
       40 O2     4px       -0.0000   -0.0000    0.0000   -0.0000    0.0056    0.0037   -0.0000   -0.0006    0.1174    0.0000
       41 O2     5px       -0.0000    0.0000    0.0000   -0.0000    0.0004    0.0003   -0.0000   -0.0002    0.0421    0.0000
       42 O2     2py       -0.0000   -0.0000   -0.0000    0.0000   -0.4346    0.6542    0.0000    0.6389    0.0034    0.0000
       43 O2     3py       -0.0000   -0.0000    0.0000   -0.0000   -0.0305    0.0460    0.0000    0.3350    0.0018    0.0000
       44 O2     4py       -0.0000    0.0000   -0.0000    0.0000   -0.0037    0.0056    0.0000    0.1174    0.0006    0.0000
       45 O2     5py        0.0000    0.0000   -0.0000    0.0000   -0.0003    0.0004    0.0000    0.0421    0.0002    0.0000
       46 O2     2pz       -0.0009   -0.0031   -0.1825    0.6921   -0.0000   -0.0000    0.3477   -0.0000   -0.0000   -0.2110
       47 O2     3pz        0.0007   -0.0007    0.0260    0.0341   -0.0000   -0.0000    0.0105    0.0000   -0.0000   -0.2267
       48 O2     4pz       -0.0003    0.0005   -0.0026    0.0127   -0.0000   -0.0000    0.0072    0.0000    0.0000   -0.1165
       49 O2     5pz        0.0007    0.0000   -0.0014    0.0016   -0.0000   -0.0000    0.0015    0.0000   -0.0000   -0.0405
       50 O2     3d2-       0.0000   -0.0000    0.0000    0.0000    0.0000   -0.0000    0.0000   -0.0000    0.0000   -0.0000
       51 O2     4d2-      -0.0000    0.0000    0.0000    0.0000    0.0000   -0.0000    0.0000    0.0000    0.0000   -0.0000
       52 O2     3d1-       0.0000    0.0000    0.0000    0.0000    0.0215   -0.0324    0.0000    0.0152    0.0001    0.0000
       53 O2     4d1-       0.0000    0.0000    0.0000    0.0000    0.0035   -0.0052    0.0000    0.0022    0.0000    0.0000
       54 O2     3d0        0.0005    0.0014    0.0201   -0.0278   -0.0000    0.0000   -0.0119    0.0000    0.0000   -0.0369
       55 O2     4d0        0.0001    0.0003   -0.0015   -0.0014   -0.0000    0.0000    0.0013    0.0000    0.0000   -0.0161
       56 O2     3d1+      -0.0000   -0.0000   -0.0000   -0.0000   -0.0324   -0.0215   -0.0000   -0.0001    0.0152    0.0000
       57 O2     4d1+      -0.0000   -0.0000   -0.0000    0.0000   -0.0052   -0.0035    0.0000   -0.0000    0.0022    0.0000
       58 O2     3d2+       0.0000    0.0000    0.0000   -0.0000    0.0000    0.0000   -0.0000   -0.0000    0.0000    0.0000
       59 O2     4d2+       0.0000    0.0000    0.0000   -0.0000    0.0000    0.0000   -0.0000   -0.0000    0.0000    0.0000
       60 O2     4f3-       0.0000   -0.0000    0.0000    0.0000    0.0000   -0.0000    0.0000    0.0000   -0.0000    0.0000
       61 O2     4f2-      -0.0000   -0.0000   -0.0000   -0.0000    0.0000   -0.0000   -0.0000   -0.0000    0.0000    0.0000
       62 O2     4f1-      -0.0000    0.0000    0.0000   -0.0000   -0.0033    0.0050   -0.0000   -0.0022   -0.0000   -0.0000
       63 O2     4f0       -0.0002   -0.0005   -0.0043    0.0033    0.0000   -0.0000    0.0025   -0.0000    0.0000    0.0113
       64 O2     4f1+       0.0000    0.0000    0.0000   -0.0000    0.0050    0.0033    0.0000    0.0000   -0.0022   -0.0000
       65 O2     4f2+      -0.0000    0.0000    0.0000    0.0000   -0.0000    0.0000    0.0000   -0.0000    0.0000   -0.0000
       66 O2     4f3+      -0.0000   -0.0000    0.0000    0.0000   -0.0000    0.0000    0.0000    0.0000    0.0000   -0.0000
 
          Orbital           11        12        13        14        15        16    
          Energy            0.2014    0.2506    0.2506    0.4795    0.5587    0.5587
          Occ. No.          0.0000    0.0000    0.0000    0.0000    0.0000    0.0000
 
        1 C1     1s         0.0127   -0.0000    0.0000    0.0721    0.0000    0.0000
        2 C1     2s        -0.3837    0.0000    0.0000    0.1213    0.0000    0.0000
        3 C1     3s        -0.2475    0.0000   -0.0000   -0.5830    0.0000    0.0000
        4 C1     4s        -0.0915    0.0000   -0.0000   -0.1953    0.0000    0.0000
        5 C1     2px        0.0000    0.1045   -0.6042   -0.0000   -0.0013   -0.6018
        6 C1     3px       -0.0000   -0.0859    0.4970   -0.0000   -0.0018   -0.8509
        7 C1     4px       -0.0000   -0.0847    0.4901   -0.0000   -0.0006   -0.2805
        8 C1     5px       -0.0000   -0.0397    0.2294   -0.0000   -0.0002   -0.1139
        9 C1     2py       -0.0000   -0.6042   -0.1045   -0.0000   -0.6018    0.0013
       10 C1     3py        0.0000    0.4970    0.0859    0.0000   -0.8509    0.0018
       11 C1     4py        0.0000    0.4901    0.0847    0.0000   -0.2805    0.0006
       12 C1     5py        0.0000    0.2294    0.0397    0.0000   -0.1139    0.0002
       13 C1     2pz        0.0378    0.0000    0.0000   -0.6661    0.0000    0.0000
       14 C1     3pz       -0.9745    0.0000   -0.0000   -0.5548    0.0000    0.0000
       15 C1     4pz       -0.7768    0.0000   -0.0000   -0.0370    0.0000    0.0000
       16 C1     5pz       -0.2906    0.0000   -0.0000    0.0075   -0.0000    0.0000
       17 C1     3d2-       0.0000   -0.0000    0.0000    0.0000    0.0000   -0.0000
       18 C1     4d2-       0.0000   -0.0000    0.0000    0.0000    0.0000   -0.0000
       19 C1     3d1-       0.0000   -0.0242   -0.0042   -0.0000   -0.2473    0.0005
       20 C1     4d1-       0.0000    0.0007    0.0001    0.0000   -0.1168    0.0002
       21 C1     3d0        0.2320   -0.0000    0.0000   -0.0013    0.0000   -0.0000
       22 C1     4d0        0.0600   -0.0000    0.0000    0.0010    0.0000   -0.0000
       23 C1     3d1+       0.0000    0.0042   -0.0242   -0.0000   -0.0005   -0.2473
       24 C1     4d1+       0.0000   -0.0001    0.0007   -0.0000   -0.0002   -0.1168
       25 C1     3d2+      -0.0000   -0.0000   -0.0000    0.0000   -0.0000    0.0000
       26 C1     4d2+      -0.0000   -0.0000   -0.0000    0.0000   -0.0000    0.0000
       27 C1     4f3-       0.0000   -0.0000   -0.0000   -0.0000    0.0000   -0.0000
       28 C1     4f2-       0.0000    0.0000    0.0000   -0.0000   -0.0000    0.0000
       29 C1     4f1-      -0.0000   -0.0165   -0.0028   -0.0000   -0.0426    0.0001
       30 C1     4f0        0.0470   -0.0000    0.0000   -0.0462   -0.0000   -0.0000
       31 C1     4f1+       0.0000    0.0028   -0.0165    0.0000   -0.0001   -0.0426
       32 C1     4f2+       0.0000   -0.0000    0.0000   -0.0000   -0.0000   -0.0000
       33 C1     4f3+      -0.0000    0.0000    0.0000   -0.0000   -0.0000    0.0000
       34 O2     1s        -0.0324    0.0000   -0.0000    0.0983   -0.0000   -0.0000
       35 O2     2s         0.2030   -0.0000   -0.0000    0.5293   -0.0000   -0.0000
       36 O2     3s         1.0479   -0.0000    0.0000    0.3811   -0.0000   -0.0000
       37 O2     4s         0.0697   -0.0000    0.0000   -0.0796    0.0000    0.0000
       38 O2     2px       -0.0000   -0.0613    0.3543    0.0000    0.0006    0.3028
       39 O2     3px       -0.0000   -0.0342    0.1980    0.0000    0.0030    1.4227
       40 O2     4px       -0.0000   -0.0081    0.0471    0.0000    0.0014    0.6817
       41 O2     5px       -0.0000   -0.0033    0.0190    0.0000    0.0006    0.2698
       42 O2     2py        0.0000    0.3543    0.0613    0.0000    0.3028   -0.0006
       43 O2     3py        0.0000    0.1980    0.0342    0.0000    1.4227   -0.0030
       44 O2     4py        0.0000    0.0471    0.0081   -0.0000    0.6817   -0.0014
       45 O2     5py        0.0000    0.0190    0.0033   -0.0000    0.2698   -0.0006
       46 O2     2pz        0.2509   -0.0000    0.0000    0.1969    0.0000    0.0000
       47 O2     3pz        0.1416   -0.0000    0.0000    0.8762    0.0000    0.0000
       48 O2     4pz       -0.1017    0.0000   -0.0000    0.4481    0.0000    0.0000
       49 O2     5pz       -0.0346    0.0000   -0.0000    0.1722    0.0000    0.0000
       50 O2     3d2-      -0.0000    0.0000   -0.0000    0.0000    0.0000    0.0000
       51 O2     4d2-      -0.0000    0.0000    0.0000   -0.0000    0.0000   -0.0000
       52 O2     3d1-       0.0000   -0.0038   -0.0007    0.0000   -0.0586    0.0001
       53 O2     4d1-      -0.0000   -0.0159   -0.0028    0.0000   -0.0463    0.0001
       54 O2     3d0       -0.0790    0.0000   -0.0000    0.0032    0.0000    0.0000
       55 O2     4d0       -0.0401    0.0000   -0.0000   -0.0224    0.0000    0.0000
       56 O2     3d1+      -0.0000    0.0007   -0.0038   -0.0000   -0.0001   -0.0586
       57 O2     4d1+       0.0000    0.0028   -0.0159   -0.0000   -0.0001   -0.0463
       58 O2     3d2+       0.0000    0.0000    0.0000    0.0000    0.0000    0.0000
       59 O2     4d2+      -0.0000   -0.0000    0.0000    0.0000    0.0000    0.0000
       60 O2     4f3-      -0.0000    0.0000   -0.0000   -0.0000    0.0000    0.0000
       61 O2     4f2-       0.0000   -0.0000    0.0000   -0.0000   -0.0000   -0.0000
       62 O2     4f1-       0.0000    0.0026    0.0005   -0.0000    0.0106   -0.0000
       63 O2     4f0       -0.0010    0.0000    0.0000    0.0079   -0.0000   -0.0000
       64 O2     4f1+      -0.0000   -0.0005    0.0026    0.0000    0.0000    0.0106
       65 O2     4f2+      -0.0000    0.0000    0.0000   -0.0000   -0.0000    0.0000
       66 O2     4f3+      -0.0000   -0.0000    0.0000   -0.0000   -0.0000    0.0000
--
 
 
++    Molecular charges:
      ------------------
 
      Mulliken charges per centre and basis function type
      ---------------------------------------------------
 
                C1      O2    
      1s       1.9986  1.9996
      2s       1.5929  1.7191
      2px      0.4672  1.4416
      2pz      0.9635  1.4797
      2py      0.4672  1.4416
      3s       0.0820  0.0233
      3px     -0.0068  0.0229
      3pz      0.0816  0.0014
      3py     -0.0068  0.0229
      4s       0.0075 -0.0014
      3d2+     0.0000  0.0000
      3d1+     0.0509  0.0135
      3d0      0.0317  0.0113
      3d1-     0.0509  0.0135
      3d2-     0.0000  0.0000
      4px     -0.0007  0.0004
      4pz     -0.0051 -0.0045
      4py     -0.0007  0.0004
      4d2+     0.0000  0.0000
      4d1+    -0.0005  0.0019
      4d0      0.0142  0.0009
      4d1-    -0.0005  0.0019
      4d2-     0.0000  0.0000
      5px     -0.0000 -0.0000
      5pz      0.0006 -0.0004
      5py     -0.0000 -0.0000
      4f3+     0.0000  0.0000
      4f2+     0.0000  0.0000
      4f1+     0.0084  0.0012
      4f0      0.0028  0.0007
      4f1-     0.0084  0.0012
      4f2-     0.0000  0.0000
      4f3-     0.0000  0.0000
      Total    5.8076  8.1924
 
      N-E      0.1924 -0.1924
 
      Total electronic charge=   14.000000
 
      Total            charge=   -0.000000
--
 
 
  Input file to MOLDEN was generated!
 
 
++    Static properties:
      ------------------
 
 
      LoProp Charges per center
 

                   C1       O2    
      Nuclear      6.0000   8.0000
      Electronic  -5.8450  -8.1550
 
      Total        0.1550  -0.1550
--
 
 
++    Natural Bond Order analysis
      ---------------------------
      Based on LoProp computed density
      -------------------------------------------------------------------------------------
      Atom A       Atom B       Bond Order
        C1           O2             0.764
      -------------------------------------------------------------------------------------
      NBO located      1.528 electrons involved in    1 bonds.
      NBO located      1.002 non-bonded electrons on atom C1        
      The remaining    5.332 electrons are to be considered as diffuse
--
 
 
++    Molecular properties:
      ---------------------
 
      Charge (e):
                      =   -0.0000
      Dipole Moment (Debye):
      Origin of the operator (Ang)=    0.0000    0.0000    0.0000
                   X=  1.8827E-14               Y=  9.7196E-14               Z= -2.4940E-01           Total=  2.4940E-01
      Quadrupole Moment (Debye*Ang):
      Origin of the operator (Ang)=    0.0000    0.0000    0.6447
                  XX= -1.0191E+01              XY=  7.6147E-14              XZ=  4.1311E-14              YY= -1.0191E+01
                  YZ= -8.6231E-14              ZZ= -1.2271E+01
      In traceless form (Debye*Ang)
                  XX=  1.0398E+00              XY=  1.1422E-13              XZ=  6.1967E-14              YY=  1.0398E+00
                  YZ= -1.2935E-13              ZZ= -2.0797E+00
--
 
 
  Input file to MOLDEN was generated!
 
 ###############################################################################
 ###############################################################################
 ###                                                                         ###
 ###                                                                         ###
 ###    WARNING: RunFile label nBas                                          ###
 ###    was used       79 times                                              ###
 ###                                                                         ###
 ###                                                                         ###
 ###############################################################################
 ###############################################################################
--- Stop Module: scf at Thu Jul 14 13:39:29 2022 /rc=_RC_ALL_IS_WELL_ ---
*** files: MOLCAS.LprOrb MOLCAS.LoProp.molden MOLCAS.scf.molden MOLCAS.ScfOrb MOLCAS.scf.h5 xmldump
    saved to directory /projects/academic/cyberwksp21/Students/jstetzler/Project/OpenMOLCAS_PEC_Calcuation/More_Excited_States/Geom_1.128300
--- Module scf spent 17 seconds ---

.##################.
.# Happy landing! #.
.##################.

    Timing: Wall=39.91 User=4.69 System=1.48
