|===============================================================================
|
|  DFTB+ release 20.2.1
|
|  Copyright (C) 2006 - 2020  DFTB+ developers group
|
|===============================================================================
|
|  When publishing results obtained with DFTB+, please cite the following
|  reference:
|
|  * DFTB+, a software package for efficient approximate density functional
|    theory based atomistic simulations, J. Chem. Phys. 152, 124101 (2020).
|    [doi: 10.1063/1.5143190]
|
|  You should also cite additional publications crediting the parametrization
|  data you use. Please consult the documentation of the SK-files for the
|  references.
|
|===============================================================================

Reading input file 'dftb_in.hsd'
Parser version: 9

--------------------------------------------------------------------------------
***  Converting input from parser version  8 to parser version  9 ...
***  Done.

Reading SK-files:
Done.


Processed input in HSD format written to 'dftb_pin.hsd'

Starting initialization...
--------------------------------------------------------------------------------
OpenMP threads:              1
Chosen random seed:          1402150870
Mode:                        Static calculation
Self consistent charges:     Yes
SCC-tolerance:                 0.100000E-05
Max. scc iterations:                   1000
Shell resolved Hubbard:      No
Spin polarisation:           No
Nr. of up electrons:             6.000000
Nr. of down electrons:           6.000000
Periodic boundaries:         No
Electronic solver:           Relatively robust
Maximal SCC-cycles:                    1000
Initial charges:             Set automatically (system chrg:   0.100E+01)
Included shells:             C:  s, p
                             N:  s, p
                             H:  s
Spin coupling constants:     C   1(s)-1(s):  -0.455900E-01
                             C   1(s)-2(p):  -0.293000E-01
                             C   2(p)-1(s):  -0.293000E-01
                             C   2(p)-2(p):  -0.275500E-01
                             N   1(s)-1(s):  -0.468700E-01
                             N   1(s)-2(p):  -0.317000E-01
                             N   2(p)-1(s):  -0.317000E-01
                             N   2(p)-2(p):  -0.307200E-01
                             H   1(s)-1(s):  -0.792500E-01
Range separated hybrid:      Yes
  Screening parameter omega:   0.300000E+00
  Range separated algorithm:   MatrixBased
Extra options:
                             Mulliken analysis
                             Force calculation
Force type                   original
                             Eigenvector printing
 
 
REKS Calcuation:             Yes
SSR(2,2) Calcuation:         Yes
Energy Functional:           (PPS+OSS)/2
Number of Core Orbitals:                  5
Number of Active Orbitals:                2
Number of Basis:                         12
Number of States:                         2
State-Averaging Weight:          0.500000
                                 0.500000
State of Interest:                        1
Initial Guess:               Diagonalize H0 matrix
Newton-Raphson for FON opt:  Yes
NR max. Iterations:                      50
Level Shifting:              Yes
Shift Value:                     0.300000
W Scale Factor:              C  =    3.000000
                             N  =    3.000000
                             H  =    3.000000
Transition Dipole:           No
Gradient of Microstate:      No
CP-REKS Solver:              Preconditioned Conjugate-Gradient
CG max. Iterations:                     100
CG Tolerance:                  0.100000E-07
Memory for A and Hxc:        Direct Updating Without Saving

--------------------------------------------------------------------------------

***  Geometry step: 0

  iSCC       reks energy        Diff energy         x_a       SCC error   
    1       -6.2421369598       0.0000000000     0.997313    1.16865526
    2       -6.2592248812      -0.0170879214     0.999402    0.12108980
    3       -6.2648957082      -0.0056708270     0.999814    0.07670773
    4       -6.2671261337      -0.0022304255     0.999920    0.04364821
    5       -6.2681042129      -0.0009780793     0.999954    0.02429396
    6       -6.2686374471      -0.0005332342     0.999967    0.01441416
    7       -6.2690206005      -0.0003831534     0.999972    0.00957844
    8       -6.2693646227      -0.0003440222     0.999974    0.00722618
    9       -6.2697169929      -0.0003523702     0.999974    0.00840232
   10       -6.2701030031      -0.0003860102     0.999974    0.00952660
   11       -6.2705400170      -0.0004370139     0.999972    0.01050301
   12       -6.2710425247      -0.0005025077     0.999970    0.01141880
   13       -6.2716236569      -0.0005811322     0.999968    0.01230076
   14       -6.2722948946      -0.0006712377     0.999966    0.01313745
   15       -6.2730644590      -0.0007695644     0.999964    0.01388925
   16       -6.2739345736      -0.0008701147     0.999963    0.01449416
   17       -6.2748980006      -0.0009634270     0.999961    0.01487491
   18       -6.2759348254      -0.0010368247     0.999961    0.01495112
   19       -6.2770111291      -0.0010763037     0.999961    0.01465775
   20       -6.2780813491      -0.0010702200     0.999961    0.01396687
   21       -6.2790950820      -0.0010137328     0.999962    0.01292828
   22       -6.2800068355      -0.0009117535     0.999963    0.01236043
   23       -6.2807851124      -0.0007782769     0.999964    0.01149911
   24       -6.2814171006      -0.0006319883     0.999965    0.01042644
   25       -6.2819075806      -0.0004904800     0.999965    0.00924103
   26       -6.2822736250      -0.0003660444     0.999965    0.00803579
   27       -6.2825380862      -0.0002644612     0.999965    0.00688281
   28       -6.2827242742      -0.0001861880     0.999965    0.00582807
   29       -6.2828527647      -0.0001284905     0.999965    0.00489402
   30       -6.2829401250      -0.0000873604     0.999964    0.00408574
   31       -6.2829988855      -0.0000587605     0.999964    0.00339743
   32       -6.2830381161      -0.0000392306     0.999963    0.00281765
   33       -6.2830641814      -0.0000260652     0.999963    0.00233281
   34       -6.2830814500      -0.0000172686     0.999963    0.00192927
   35       -6.2830928753      -0.0000114253     0.999962    0.00159440
   36       -6.2831004325      -0.0000075572     0.999962    0.00131704
   37       -6.2831054339      -0.0000050014     0.999962    0.00109783
   38       -6.2831087473      -0.0000033134     0.999962    0.00091557
   39       -6.2831109456      -0.0000021982     0.999962    0.00076229
   40       -6.2831124063      -0.0000014607     0.999961    0.00063381
   41       -6.2831133786      -0.0000009723     0.999961    0.00052639
   42       -6.2831140268      -0.0000006483     0.999961    0.00043676
   43       -6.2831144598      -0.0000004329     0.999961    0.00036211
   44       -6.2831147493      -0.0000002896     0.999961    0.00030000
   45       -6.2831149433      -0.0000001940     0.999961    0.00024840
   46       -6.2831150734      -0.0000001301     0.999961    0.00020556
   47       -6.2831151608      -0.0000000874     0.999961    0.00017002
   48       -6.2831152195      -0.0000000587     0.999961    0.00014057
   49       -6.2831152590      -0.0000000395     0.999961    0.00011617
   50       -6.2831152856      -0.0000000266     0.999961    0.00009598
   51       -6.2831153036      -0.0000000179     0.999961    0.00007926
   52       -6.2831153157      -0.0000000121     0.999961    0.00006544
   53       -6.2831153238      -0.0000000082     0.999961    0.00005402
   54       -6.2831153293      -0.0000000055     0.999961    0.00004457
   55       -6.2831153331      -0.0000000037     0.999961    0.00003677
   56       -6.2831153356      -0.0000000025     0.999961    0.00003033
   57       -6.2831153373      -0.0000000017     0.999961    0.00002502
   58       -6.2831153384      -0.0000000011     0.999961    0.00002063
   59       -6.2831153392      -0.0000000008     0.999961    0.00001700
   60       -6.2831153397      -0.0000000005     0.999961    0.00001402
   61       -6.2831153401      -0.0000000004     0.999961    0.00001155
   62       -6.2831153403      -0.0000000002     0.999961    0.00000952
   63       -6.2831153405      -0.0000000002     0.999961    0.00000784
   64       -6.2831153406      -0.0000000001     0.999961    0.00000646
   65       -6.2831153407      -0.0000000001     0.999961    0.00000532
   66       -6.2831153407      -0.0000000001     0.999961    0.00000439
   67       -6.2831153407      -0.0000000000     0.999961    0.00000361
   68       -6.2831153408      -0.0000000000     0.999961    0.00000297
   69       -6.2831153408      -0.0000000000     0.999961    0.00000245
   70       -6.2831153408      -0.0000000000     0.999961    0.00000202
   71       -6.2831153408      -0.0000000000     0.999961    0.00000166
   72       -6.2831153408      -0.0000000000     0.999961    0.00000137
   73       -6.2831153408      -0.0000000000     0.999961    0.00000113
   74       -6.2831153408      -0.0000000000     0.999961    0.00000093
  
--------------------------------------------------
 Final SA-REKS(2,2) energy:      -6.28311534
  
 State     Energy      FON(1)    FON(2)   Spin
  PPS   -6.40710937   1.999921  0.000079  0.00
  OSS   -6.15912131   1.000000  1.000000  0.00
 Trip   -6.23715314   1.000000  1.000000  1.00
--------------------------------------------------
 
 Lagrangian Wab:   0.00127708  0.00127702
 
--------------------------------------------------
 SSR: 2SI-2SA-REKS(2,2) Hamiltonian matrix
               PPS           OSS
   PPS    -6.40710937    0.00179470
   OSS     0.00179470   -6.15912131
--------------------------------------------------
 
 unrelaxed SA-REKS FONs for S0:  1.999921  0.000079

----------------------------------------------------------------------------------
 Solving CP-REKS equation for  1 state vector...
----------------------------------------------------------------------------------
  CG solver: Constructing Y initial guess
  CG solver: Iteration    1    eps =    0.000019062275
  CG solver: Iteration    2    eps =    0.000002902889
  CG solver: Iteration    3    eps =    0.000000340182
  CG solver: Iteration    4    eps =    0.000000022455
  CG solver: Iteration    5    eps =    0.000000006479
  Convergence reached in CG solver after    5 iterations
  CG solver: Calculating converged R, Z, Q2 matrix
----------------------------------------------------------------------------------
 
--------------------------------------------------
 Gradient Information
--------------------------------------------------
 1 state (SA-REKS)
    -0.01172604     0.00004405    -0.08354143
    -0.00016787     0.00001038     0.04110455
     0.00051052     0.00289393    -0.00239645
    -0.04426737     0.00677016     0.02018874
     0.04431355    -0.00677493     0.02013902
     0.01133721    -0.00294359     0.00450556
--------------------------------------------------
 
 
Total Energy:                       -6.4071093721 H         -174.3463 eV
Extrapolated to 0K:                 -6.4071093721 H         -174.3463 eV
 
 
--------------------------------------------------------------------------------
DFTB+ running times                          cpu [s]             wall clock [s]
--------------------------------------------------------------------------------
SCC                                    +     0.04  ( 80.7%)      0.08  ( 68.6%)
Post-SCC processing                    +     0.01  ( 13.6%)      0.01  ( 11.3%)
Post-geometry optimisation             +     0.00  (  1.9%)      0.02  ( 14.8%)
--------------------------------------------------------------------------------
Missing                                +     0.00  (  3.8%)      0.01  (  5.3%)
Total                                  =     0.05  (100.0%)      0.12  (100.0%)
--------------------------------------------------------------------------------
