
     Program PWSCF v.6.2 (svn rev. 14038) starts on 12Jul2022 at 14:46:45 

     This program is part of the open-source Quantum ESPRESSO suite
     for quantum simulation of materials; please cite
         "P. Giannozzi et al., J. Phys.:Condens. Matter 21 395502 (2009);
         "P. Giannozzi et al., J. Phys.:Condens. Matter 29 465901 (2017);
          URL http://www.quantum-espresso.org", 
     in publications or presentations arising from this work. More details at
     http://www.quantum-espresso.org/quote

     Parallel version (MPI), running on    12 processors

     MPI processes distributed on     1 nodes
     R & G space division:  proc/nbgrp/npool/nimage =      12
     Waiting for input...
     Reading input from standard input

     Current dimensions of program PWSCF are:
     Max number of different atomic species (ntypx) = 10
     Max number of k-points (npk) =  40000
     Max angular momentum in pseudopotentials (lmaxx) =  3
               file Cd.pbe-n-rrkjus_psl.1.0.0.UPF: wavefunction(s)  4D renormalized

     Subspace diagonalization in iterative solution of the eigenvalue problem:
     a serial algorithm will be used


     Parallelization info
     --------------------
     sticks:   dense  smooth     PW     G-vecs:    dense   smooth      PW
     Min          90      90     26                 4327     4327     664
     Max          91      91     27                 4331     4331     669
     Sum        1081    1081    313                51943    51943    7983



     bravais-lattice index     =            0
     lattice parameter (alat)  =       1.8900  a.u.
     unit-cell volume          =    1089.4295 (a.u.)^3
     number of atoms/cell      =            4
     number of atomic types    =            2
     number of electrons       =        56.00
     number of Kohn-Sham states=           40
     kinetic-energy cutoff     =      50.0000  Ry
     charge density cutoff     =     200.0000  Ry
     convergence threshold     =      1.0E-05
     mixing beta               =       0.4500
     number of iterations used =            8  plain     mixing
     Exchange-correlation      = PBE ( 1  4  3  4 0 0)
     nstep                     =           50


     celldm(1)=   1.890000  celldm(2)=   0.000000  celldm(3)=   0.000000
     celldm(4)=   0.000000  celldm(5)=   0.000000  celldm(6)=   0.000000

     crystal axes: (cart. coord. in units of alat)
               a(1) = (   4.716987  -0.015513  -0.002401 )  
               a(2) = (  -2.371927   4.062830  -0.000274 )  
               a(3) = (  -0.002553  -0.001388   8.436361 )  

     reciprocal axes: (cart. coord. in units 2 pi/alat)
               b(1) = (  0.212408  0.124006  0.000085 )  
               b(2) = (  0.000811  0.246607  0.000041 )  
               b(3) = (  0.000060  0.000043  0.118535 )  


     PseudoPot. # 1 for Cd read from file:
     PP/Cd.pbe-n-rrkjus_psl.1.0.0.UPF
     MD5 check sum: a744746c89d2344a134ead0d8ab94e7a
     Pseudo is Ultrasoft + core correction, Zval = 12.0
     Generated using "atomic" code by A. Dal Corso v.6.3
     Using radial grid of 1239 points,  6 beta functions with: 
                l(1) =   0
                l(2) =   0
                l(3) =   1
                l(4) =   1
                l(5) =   2
                l(6) =   2
     Q(r) pseudized with 0 coefficients 


     PseudoPot. # 2 for Se read from file:
     PP/Se.pbe-dn-rrkjus_psl.1.0.0.UPF
     MD5 check sum: 497c2ee764913186385bad8d0f9c7a86
     Pseudo is Ultrasoft + core correction, Zval = 16.0
     Generated using "atomic" code by A. Dal Corso v.6.3
     Using radial grid of 1211 points,  6 beta functions with: 
                l(1) =   0
                l(2) =   0
                l(3) =   1
                l(4) =   1
                l(5) =   2
                l(6) =   2
     Q(r) pseudized with 0 coefficients 


     atomic species   valence    mass     pseudopotential
        Cd            12.00   121.41100     Cd( 1.00)
        Se            16.00    78.96000     Se( 1.00)

     Starting magnetic structure 
     atomic species   magnetization
        Cd           0.100
        Se           0.000

     No symmetry found



   Cartesian axes

     site n.     atom                  positions (alat units)
         1           Cd  tau(   1) = (   0.0061211   2.6804798   8.7946236  )
         2           Cd  tau(   2) = (   2.3348843   1.3655020   4.5764897  )
         3           Se  tau(   3) = (  -0.0095675   2.7019777   2.8885284  )
         4           Se  tau(   4) = (   2.3516108   1.3428293   7.1037302  )

     number of k points=    14  gaussian smearing, width (Ry)=  0.0050
                       cart. coord. in units 2pi/alat
        k(    1) = (   0.0000000   0.0000000   0.0000000), wk =   0.0370370
        k(    2) = (   0.0000202   0.0000144   0.0395115), wk =   0.0740741
        k(    3) = (   0.0002703   0.0822025   0.0000136), wk =   0.0740741
        k(    4) = (   0.0002905   0.0822169   0.0395251), wk =   0.0740741
        k(    5) = (   0.0002502   0.0821880  -0.0394979), wk =   0.0740741
        k(    6) = (   0.0708025   0.0413353   0.0000282), wk =   0.0740741
        k(    7) = (   0.0708227   0.0413498   0.0395397), wk =   0.0740741
        k(    8) = (   0.0707824   0.0413209  -0.0394833), wk =   0.0740741
        k(    9) = (   0.0710729   0.1235378   0.0000418), wk =   0.0740741
        k(   10) = (   0.0710930   0.1235522   0.0395533), wk =   0.0740741
        k(   11) = (   0.0710527   0.1235234  -0.0394697), wk =   0.0740741
        k(   12) = (   0.0705322  -0.0408671   0.0000146), wk =   0.0740741
        k(   13) = (   0.0705524  -0.0408527   0.0395261), wk =   0.0740741
        k(   14) = (   0.0705120  -0.0408815  -0.0394969), wk =   0.0740741

     Dense  grid:    51943 G-vectors     FFT dimensions: (  45,  45,  72)

     Estimated max dynamical RAM per process >      28.47 MB

     Estimated total dynamical RAM >     341.61 MB
     Generating pointlists ...
     new r_m :   0.4125 (alat units)  0.7796 (a.u.) for type    1
     new r_m :   0.4125 (alat units)  0.7796 (a.u.) for type    2

     Initial potential from superposition of free atoms

     starting charge   55.99008, renormalised to   56.00000
     Starting wfc are   36 randomized atomic wfcs +    4 random wfc

     total cpu time spent up to now is        3.1 secs

     Self-consistent Calculation

     iteration #  1     ecut=    50.00 Ry     beta= 0.45
     Davidson diagonalization with overlap
     ethr =  1.00E-02,  avg # of iterations =  6.4

     Threshold (ethr) on eigenvalues was too large:
     Diagonalizing with lowered threshold

     Davidson diagonalization with overlap
     ethr =  3.29E-04,  avg # of iterations =  2.4

     total cpu time spent up to now is        7.8 secs

     total energy              =    -717.67646344 Ry
     Harris-Foulkes estimate   =    -717.72301244 Ry
     estimated scf accuracy    <       0.18409399 Ry

     total magnetization       =     0.06 Bohr mag/cell
     absolute magnetization    =     0.18 Bohr mag/cell

     iteration #  2     ecut=    50.00 Ry     beta= 0.45
     Davidson diagonalization with overlap
     ethr =  3.29E-04,  avg # of iterations =  2.5

     total cpu time spent up to now is        9.8 secs

     total energy              =    -717.70386195 Ry
     Harris-Foulkes estimate   =    -717.70032027 Ry
     estimated scf accuracy    <       0.02225083 Ry

     total magnetization       =     0.01 Bohr mag/cell
     absolute magnetization    =     0.11 Bohr mag/cell

     iteration #  3     ecut=    50.00 Ry     beta= 0.45
     Davidson diagonalization with overlap
     ethr =  3.97E-05,  avg # of iterations =  5.2

     total cpu time spent up to now is       12.3 secs

     total energy              =    -717.70944526 Ry
     Harris-Foulkes estimate   =    -717.70801753 Ry
     estimated scf accuracy    <       0.00562598 Ry

     total magnetization       =    -0.00 Bohr mag/cell
     absolute magnetization    =     0.07 Bohr mag/cell

     iteration #  4     ecut=    50.00 Ry     beta= 0.45
     Davidson diagonalization with overlap
     ethr =  1.00E-05,  avg # of iterations =  2.1

     total cpu time spent up to now is       14.2 secs

     total energy              =    -717.71050721 Ry
     Harris-Foulkes estimate   =    -717.70983840 Ry
     estimated scf accuracy    <       0.00085515 Ry

     total magnetization       =    -0.01 Bohr mag/cell
     absolute magnetization    =     0.05 Bohr mag/cell

     iteration #  5     ecut=    50.00 Ry     beta= 0.45
     Davidson diagonalization with overlap
     c_bands:  1 eigenvalues not converged
     ethr =  1.53E-06,  avg # of iterations =  3.7

     total cpu time spent up to now is       16.5 secs

     total energy              =    -717.71060396 Ry
     Harris-Foulkes estimate   =    -717.71061914 Ry
     estimated scf accuracy    <       0.00007779 Ry

     total magnetization       =    -0.01 Bohr mag/cell
     absolute magnetization    =     0.02 Bohr mag/cell

     iteration #  6     ecut=    50.00 Ry     beta= 0.45
     Davidson diagonalization with overlap
     ethr =  1.39E-07,  avg # of iterations =  2.9

     Magnetic moment per site:
     atom:    1    charge:    2.2842    magn:    0.0000    constr:    0.0000
     atom:    2    charge:    2.2843    magn:    0.0000    constr:    0.0000
     atom:    3    charge:    8.0684    magn:   -0.0001    constr:    0.0000
     atom:    4    charge:    8.0712    magn:   -0.0001    constr:    0.0000

     total cpu time spent up to now is       18.7 secs

     End of self-consistent calculation

 ------ SPIN UP ------------


          k = 0.0000 0.0000 0.0000 (  6451 PWs)   bands (ev):

   -43.8772 -43.8712 -43.8487 -43.8471 -43.8424 -43.8410 -43.7733 -43.7729
   -43.7671 -43.7667  -9.0032  -8.8340  -5.2473  -5.1988  -5.1938  -5.1593
    -5.1558  -5.1464  -5.1437  -5.1385  -5.1363  -5.0883  -1.2816   1.4335
     2.1526   2.1747   2.2202   2.6323   2.6520   5.1337   8.1236   8.1694
     8.2469   8.6253   9.2536   9.2626  10.4041  11.1386  11.2616  12.2971

          k = 0.0000 0.0000 0.0395 (  6487 PWs)   bands (ev):

   -43.8771 -43.8710 -43.8490 -43.8473 -43.8428 -43.8412 -43.7734 -43.7732
   -43.7672 -43.7670  -8.9619  -8.8772  -5.2178  -5.1899  -5.1861  -5.1691
    -5.1667  -5.1461  -5.1431  -5.1390  -5.1367  -5.1364  -0.8570   0.2411
     2.2747   2.3197   2.5064   2.5353   3.4704   4.7309   7.9452   8.1350
     8.3674   8.3951   8.9013   8.9163  11.1364  11.5866  11.7121  12.1974

          k = 0.0003 0.0822 0.0000 (  6500 PWs)   bands (ev):

   -43.8772 -43.8711 -43.8489 -43.8473 -43.8427 -43.8412 -43.7735 -43.7732
   -43.7673 -43.7670  -8.8959  -8.7977  -5.2849  -5.2283  -5.2044  -5.1710
    -5.1490  -5.1392  -5.1281  -5.1177  -5.0495  -4.9855  -0.7156   0.5835
     1.0052   1.3064   1.8057   2.4802   4.1249   5.5999   6.2895   7.3680
     7.6594   8.9621   9.6234   9.8195  10.2683  11.2009  11.5225  12.6363

          k = 0.0003 0.0822 0.0395 (  6503 PWs)   bands (ev):

   -43.8773 -43.8712 -43.8489 -43.8472 -43.8427 -43.8411 -43.7735 -43.7732
   -43.7673 -43.7670  -8.8714  -8.8223  -5.2678  -5.2405  -5.1899  -5.1672
    -5.1572  -5.1521  -5.1263  -5.1164  -5.0400  -5.0096  -0.5106   0.0482
     1.2386   1.5656   1.9540   2.2878   4.1256   4.9611   6.8144   7.2749
     8.1261   8.9672   9.1683   9.2266  10.6688  11.3113  12.0360  12.8595

          k = 0.0003 0.0822-0.0395 (  6500 PWs)   bands (ev):

   -43.8773 -43.8712 -43.8489 -43.8472 -43.8427 -43.8411 -43.7735 -43.7732
   -43.7673 -43.7670  -8.8714  -8.8223  -5.2685  -5.2397  -5.1898  -5.1669
    -5.1575  -5.1524  -5.1258  -5.1167  -5.0409  -5.0087  -0.5102   0.0470
     1.2374   1.5678   1.9541   2.2877   4.1284   4.9576   6.8103   7.2791
     8.1261   8.9671   9.1670   9.2286  10.6696  11.3111  12.0312  12.8592

          k = 0.0708 0.0413 0.0000 (  6497 PWs)   bands (ev):

   -43.8772 -43.8712 -43.8489 -43.8473 -43.8427 -43.8412 -43.7735 -43.7732
   -43.7674 -43.7670  -8.8961  -8.7991  -5.2861  -5.2277  -5.2032  -5.1696
    -5.1483  -5.1393  -5.1293  -5.1188  -5.0495  -4.9847  -0.7199   0.5724
     0.9976   1.2977   1.8230   2.4900   4.1337   5.6162   6.2895   7.3705
     7.6835   8.9670   9.6376   9.8251  10.2435  11.1946  11.5321  12.6474

          k = 0.0708 0.0413 0.0395 (  6505 PWs)   bands (ev):

   -43.8773 -43.8713 -43.8489 -43.8472 -43.8427 -43.8412 -43.7735 -43.7732
   -43.7673 -43.7671  -8.8719  -8.8235  -5.2686  -5.2396  -5.1891  -5.1657
    -5.1574  -5.1514  -5.1269  -5.1179  -5.0411  -5.0088  -0.5156   0.0395
     1.2292   1.5591   1.9696   2.3001   4.1304   4.9673   6.8203   7.2866
     8.1439   8.9740   9.1800   9.2447  10.6458  11.2893  12.0423  12.8713

          k = 0.0708 0.0413-0.0395 (  6504 PWs)   bands (ev):

   -43.8773 -43.8713 -43.8489 -43.8472 -43.8427 -43.8412 -43.7735 -43.7733
   -43.7673 -43.7671  -8.8720  -8.8234  -5.2685  -5.2397  -5.1892  -5.1659
    -5.1571  -5.1511  -5.1274  -5.1176  -5.0404  -5.0092  -0.5165   0.0394
     1.2298   1.5603   1.9699   2.2996   4.1314   4.9644   6.8200   7.2876
     8.1451   8.9770   9.1778   9.2418  10.6458  11.2888  12.0406  12.8685

          k = 0.0711 0.1235 0.0000 (  6501 PWs)   bands (ev):

   -43.8772 -43.8711 -43.8487 -43.8471 -43.8425 -43.8410 -43.7735 -43.7734
   -43.7673 -43.7672  -8.8138  -8.8104  -5.2674  -5.2643  -5.2239  -5.1495
    -5.1443  -5.1402  -5.1329  -5.1221  -4.9647  -4.9628  -0.0057  -0.0032
     1.0137   1.0432   1.0507   1.9514   5.3554   5.3649   5.8280   7.4773
     7.4875   8.0912  10.0888  10.1222  11.0656  11.7042  12.1533  12.2007

          k = 0.0711 0.1236 0.0396 (  6531 PWs)   bands (ev):

   -43.8773 -43.8713 -43.8489 -43.8473 -43.8427 -43.8412 -43.7736 -43.7734
   -43.7674 -43.7672  -8.8127  -8.8109  -5.2615  -5.2594  -5.2049  -5.1644
    -5.1512  -5.1421  -5.1329  -5.1225  -4.9695  -4.9681  -0.1638  -0.1625
     1.2069   1.3945   1.3958   1.6628   4.7609   4.7708   6.4004   7.5234
     7.8882   7.8949  10.4784  10.4948  10.9371  10.9969  12.1856  12.2083

          k = 0.0711 0.1235-0.0395 (  6535 PWs)   bands (ev):

   -43.8774 -43.8714 -43.8489 -43.8473 -43.8428 -43.8412 -43.7736 -43.7734
   -43.7674 -43.7673  -8.8127  -8.8109  -5.2611  -5.2598  -5.2049  -5.1644
    -5.1512  -5.1422  -5.1329  -5.1225  -4.9693  -4.9683  -0.1642  -0.1621
     1.2069   1.3926   1.3977   1.6628   4.7616   4.7701   6.4003   7.5235
     7.8870   7.8959  10.4790  10.4943  10.9367  10.9975  12.1860  12.2078

          k = 0.0705-0.0409 0.0000 (  6499 PWs)   bands (ev):

   -43.8773 -43.8712 -43.8488 -43.8473 -43.8426 -43.8412 -43.7734 -43.7734
   -43.7672 -43.7672  -8.8970  -8.8019  -5.2891  -5.2266  -5.2014  -5.1691
    -5.1498  -5.1395  -5.1278  -5.1170  -5.0509  -4.9842  -0.7300   0.5532
     0.9844   1.2823   1.8563   2.5109   4.1470   5.6451   6.2900   7.3829
     7.7290   8.9754   9.6610   9.8420  10.1993  11.1832  11.5543  12.6693

          k = 0.0706-0.0409 0.0395 (  6499 PWs)   bands (ev):

   -43.8774 -43.8713 -43.8489 -43.8471 -43.8427 -43.8410 -43.7735 -43.7734
   -43.7673 -43.7672  -8.8732  -8.8258  -5.2700  -5.2397  -5.1877  -5.1655
    -5.1566  -5.1515  -5.1258  -5.1159  -5.0421  -5.0103  -0.5273   0.0237
     1.2146   1.5473   2.0006   2.3249   4.1355   4.9776   6.8361   7.3067
     8.1866   8.9994   9.2049   9.2575  10.6036  11.2513  12.0606  12.8938

          k = 0.0705-0.0409-0.0395 (  6495 PWs)   bands (ev):

   -43.8773 -43.8713 -43.8488 -43.8471 -43.8426 -43.8410 -43.7735 -43.7734
   -43.7673 -43.7672  -8.8733  -8.8257  -5.2705  -5.2389  -5.1876  -5.1653
    -5.1570  -5.1518  -5.1253  -5.1162  -5.0430  -5.0095  -0.5286   0.0249
     1.2143   1.5481   2.0009   2.3246   4.1360   4.9760   6.8348   7.3084
     8.1871   8.9974   9.2059   9.2589  10.6029  11.2526  12.0577  12.8930

 ------ SPIN DOWN ----------


          k = 0.0000 0.0000 0.0000 (  6451 PWs)   bands (ev):

   -43.8787 -43.8726 -43.8502 -43.8486 -43.8439 -43.8424 -43.7748 -43.7744
   -43.7686 -43.7682  -9.0114  -8.8426  -5.2458  -5.1970  -5.1920  -5.1575
    -5.1540  -5.1445  -5.1418  -5.1366  -5.1344  -5.0867  -1.2827   1.4282
     2.1505   2.1715   2.2124   2.6234   2.6430   5.1348   8.1267   8.1729
     8.2455   8.6258   9.2560   9.2652  10.4045  11.1369  11.2598  12.2964

          k = 0.0000 0.0000 0.0395 (  6487 PWs)   bands (ev):

   -43.8785 -43.8725 -43.8504 -43.8488 -43.8442 -43.8427 -43.7749 -43.7747
   -43.7687 -43.7685  -8.9702  -8.8857  -5.2163  -5.1881  -5.1843  -5.1673
    -5.1649  -5.1443  -5.1413  -5.1373  -5.1349  -5.1346  -0.8584   0.2390
     2.2666   2.3116   2.4978   2.5267   3.4702   4.7313   7.9438   8.1351
     8.3706   8.3984   8.9038   8.9190  11.1366  11.5850  11.7103  12.1978

          k = 0.0003 0.0822 0.0000 (  6500 PWs)   bands (ev):

   -43.8787 -43.8726 -43.8504 -43.8487 -43.8442 -43.8427 -43.7750 -43.7747
   -43.7689 -43.7685  -8.9042  -8.8062  -5.2832  -5.2265  -5.2026  -5.1691
    -5.1472  -5.1373  -5.1263  -5.1158  -5.0481  -4.9841  -0.7169   0.5814
     1.0000   1.3006   1.7986   2.4717   4.1230   5.5992   6.2916   7.3692
     7.6624   8.9612   9.6225   9.8215  10.2681  11.1996  11.5223  12.6346

          k = 0.0003 0.0822 0.0395 (  6503 PWs)   bands (ev):

   -43.8788 -43.8727 -43.8503 -43.8487 -43.8441 -43.8426 -43.7750 -43.7747
   -43.7688 -43.7685  -8.8798  -8.8308  -5.2661  -5.2387  -5.1881  -5.1653
    -5.1554  -5.1502  -5.1245  -5.1146  -5.0386  -5.0081  -0.5121   0.0463
     1.2328   1.5593   1.9467   2.2798   4.1256   4.9609   6.8153   7.2756
     8.1286   8.9669   9.1701   9.2261  10.6673  11.3108  12.0351  12.8576

          k = 0.0003 0.0822-0.0395 (  6500 PWs)   bands (ev):

   -43.8787 -43.8727 -43.8503 -43.8487 -43.8441 -43.8426 -43.7750 -43.7747
   -43.7688 -43.7685  -8.8798  -8.8308  -5.2667  -5.2379  -5.1879  -5.1651
    -5.1557  -5.1505  -5.1240  -5.1149  -5.0394  -5.0073  -0.5116   0.0451
     1.2316   1.5614   1.9468   2.2797   4.1285   4.9574   6.8112   7.2798
     8.1287   8.9667   9.1688   9.2281  10.6680  11.3105  12.0304  12.8572

          k = 0.0708 0.0413 0.0000 (  6497 PWs)   bands (ev):

   -43.8787 -43.8726 -43.8503 -43.8487 -43.8441 -43.8427 -43.7751 -43.7747
   -43.7689 -43.7685  -8.9044  -8.8076  -5.2844  -5.2259  -5.2014  -5.1678
    -5.1464  -5.1374  -5.1275  -5.1170  -5.0481  -4.9833  -0.7212   0.5703
     0.9925   1.2919   1.8159   2.4815   4.1317   5.6154   6.2916   7.3717
     7.6866   8.9661   9.6367   9.8271  10.2433  11.1933  11.5320  12.6454

          k = 0.0708 0.0413 0.0395 (  6505 PWs)   bands (ev):

   -43.8788 -43.8727 -43.8504 -43.8487 -43.8442 -43.8426 -43.7750 -43.7748
   -43.7688 -43.7686  -8.8803  -8.8320  -5.2668  -5.2378  -5.1873  -5.1639
    -5.1555  -5.1495  -5.1251  -5.1161  -5.0396  -5.0074  -0.5171   0.0376
     1.2235   1.5527   1.9622   2.2920   4.1304   4.9670   6.8212   7.2873
     8.1465   8.9736   9.1816   9.2443  10.6443  11.2888  12.0414  12.8694

          k = 0.0708 0.0413-0.0395 (  6504 PWs)   bands (ev):

   -43.8788 -43.8727 -43.8503 -43.8487 -43.8441 -43.8426 -43.7750 -43.7748
   -43.7688 -43.7686  -8.8804  -8.8319  -5.2668  -5.2380  -5.1874  -5.1641
    -5.1552  -5.1492  -5.1256  -5.1158  -5.0390  -5.0078  -0.5180   0.0375
     1.2241   1.5540   1.9626   2.2916   4.1314   4.9642   6.8209   7.2882
     8.1477   8.9766   9.1794   9.2415  10.6443  11.2883  12.0397  12.8666

          k = 0.0711 0.1235 0.0000 (  6501 PWs)   bands (ev):

   -43.8786 -43.8726 -43.8502 -43.8486 -43.8440 -43.8425 -43.7750 -43.7749
   -43.7688 -43.7687  -8.8223  -8.8189  -5.2657  -5.2625  -5.2221  -5.1477
    -5.1424  -5.1384  -5.1311  -5.1203  -4.9633  -4.9614  -0.0072  -0.0047
     1.0080   1.0380   1.0454   1.9437   5.3530   5.3624   5.8303   7.4794
     7.4895   8.0906  10.0892  10.1226  11.0617  11.7027  12.1533  12.2007

          k = 0.0711 0.1236 0.0396 (  6531 PWs)   bands (ev):

   -43.8788 -43.8728 -43.8504 -43.8487 -43.8442 -43.8427 -43.7751 -43.7749
   -43.7689 -43.7687  -8.8212  -8.8194  -5.2597  -5.2576  -5.2031  -5.1626
    -5.1494  -5.1403  -5.1311  -5.1207  -4.9681  -4.9668  -0.1655  -0.1641
     1.2009   1.3888   1.3900   1.6560   4.7606   4.7704   6.4018   7.5235
     7.8884   7.8951  10.4796  10.4960  10.9337  10.9944  12.1853  12.2080

          k = 0.0711 0.1235-0.0395 (  6535 PWs)   bands (ev):

   -43.8789 -43.8728 -43.8504 -43.8488 -43.8442 -43.8427 -43.7751 -43.7750
   -43.7689 -43.7688  -8.8212  -8.8193  -5.2594  -5.2581  -5.2031  -5.1625
    -5.1493  -5.1403  -5.1311  -5.1207  -4.9680  -4.9670  -0.1658  -0.1638
     1.2009   1.3868   1.3920   1.6559   4.7613   4.7698   6.4017   7.5237
     7.8872   7.8961  10.4802  10.4955  10.9333  10.9951  12.1857  12.2075

          k = 0.0705-0.0409 0.0000 (  6499 PWs)   bands (ev):

   -43.8788 -43.8727 -43.8502 -43.8488 -43.8440 -43.8427 -43.7750 -43.7749
   -43.7688 -43.7687  -8.9053  -8.8105  -5.2874  -5.2248  -5.1996  -5.1673
    -5.1479  -5.1376  -5.1260  -5.1152  -5.0495  -4.9828  -0.7312   0.5512
     0.9792   1.2765   1.8492   2.5023   4.1449   5.6441   6.2922   7.3840
     7.7321   8.9745   9.6601   9.8441  10.1991  11.1819  11.5543  12.6674

          k = 0.0706-0.0409 0.0395 (  6499 PWs)   bands (ev):

   -43.8788 -43.8728 -43.8503 -43.8486 -43.8441 -43.8425 -43.7750 -43.7749
   -43.7688 -43.7687  -8.8816  -8.8343  -5.2682  -5.2379  -5.1859  -5.1637
    -5.1548  -5.1497  -5.1240  -5.1141  -5.0406  -5.0088  -0.5288   0.0218
     1.2089   1.5410   1.9932   2.3168   4.1355   4.9773   6.8369   7.3073
     8.1892   8.9989   9.2068   9.2570  10.6022  11.2509  12.0597  12.8916

          k = 0.0705-0.0409-0.0395 (  6495 PWs)   bands (ev):

   -43.8788 -43.8728 -43.8503 -43.8485 -43.8441 -43.8425 -43.7750 -43.7749
   -43.7688 -43.7687  -8.8817  -8.8342  -5.2688  -5.2371  -5.1857  -5.1635
    -5.1551  -5.1499  -5.1235  -5.1144  -5.0416  -5.0080  -0.5300   0.0230
     1.2086   1.5418   1.9935   2.3165   4.1360   4.9757   6.8356   7.3091
     8.1897   8.9969   9.2079   9.2583  10.6014  11.2522  12.0568  12.8909

     the Fermi energy is     2.6399 ev

!    total energy              =    -717.71062103 Ry
     Harris-Foulkes estimate   =    -717.71062530 Ry
     estimated scf accuracy    <       0.00000862 Ry

     total magnetization       =    -0.01 Bohr mag/cell
     absolute magnetization    =     0.01 Bohr mag/cell

     convergence has been achieved in   6 iterations

     Forces acting on atoms (cartesian axes, Ry/au):

     atom    1 type  1   force =     0.00063705   -0.00096900   -0.05587577
     atom    2 type  1   force =    -0.00073220    0.00088170   -0.05429083
     atom    3 type  2   force =     0.00000591    0.00006878    0.05989457
     atom    4 type  2   force =     0.00008925    0.00001852    0.05027202

     Total force =     0.110394     Total SCF correction =     0.014614
     SCF correction compared to forces is large: reduce conv_thr to get better values

     Molecular Dynamics Calculation

     Starting temperature  =   300.00 K

     temperature is controlled by Andersen thermostat
     Collision frequency = 1.0000/timestep
     mass Cd               =   121.41
     mass Se               =    78.96
     Time step             =    20.67 a.u.,  1.0000 femto-seconds

     Entering Dynamics:    iteration =     1
                           time      =   0.0010 pico-seconds


     Andersen thermostat:    4 collisions

ATOMIC_POSITIONS (alat)
Cd       0.005821646   2.679044497   8.796011713
Cd       2.334566796   1.367817493   4.575222732
Se      -0.007877063   2.699261468   2.886329046
Se       2.350869000   1.344192291   7.105743268


     kinetic energy (Ekin) =     0.01167456 Ry
     temperature           =   409.61461094 K 
     Ekin + Etot (const)   =  -717.69894647 Ry

     Linear momentum :   -0.0000000000    0.0000000000    0.0000000000

     Writing output data file x0.save
     NEW-OLD atomic charge density approx. for the potential

     total cpu time spent up to now is       20.5 secs

     Self-consistent Calculation

     iteration #  1     ecut=    50.00 Ry     beta= 0.45
     Davidson diagonalization with overlap
     ethr =  1.00E-06,  avg # of iterations =  4.0

     Threshold (ethr) on eigenvalues was too large:
     Diagonalizing with lowered threshold

     Davidson diagonalization with overlap
     ethr =  9.54E-08,  avg # of iterations =  1.0

     total cpu time spent up to now is       25.4 secs

     total energy              =    -717.71057881 Ry
     Harris-Foulkes estimate   =    -717.71061220 Ry
     estimated scf accuracy    <       0.00005325 Ry

     total magnetization       =    -0.00 Bohr mag/cell
     absolute magnetization    =     0.01 Bohr mag/cell

     iteration #  2     ecut=    50.00 Ry     beta= 0.45
     Davidson diagonalization with overlap
     ethr =  9.51E-08,  avg # of iterations =  2.0

     total cpu time spent up to now is       27.3 secs

     total energy              =    -717.71058985 Ry
     Harris-Foulkes estimate   =    -717.71061388 Ry
     estimated scf accuracy    <       0.00007023 Ry

     total magnetization       =    -0.00 Bohr mag/cell
     absolute magnetization    =     0.00 Bohr mag/cell

     iteration #  3     ecut=    50.00 Ry     beta= 0.45
     Davidson diagonalization with overlap
     ethr =  9.51E-08,  avg # of iterations =  1.4

     Magnetic moment per site:
     atom:    1    charge:    2.2843    magn:   -0.0000    constr:    0.0000
     atom:    2    charge:    2.2846    magn:   -0.0000    constr:    0.0000
     atom:    3    charge:    8.0675    magn:   -0.0000    constr:    0.0000
     atom:    4    charge:    8.0711    magn:   -0.0000    constr:    0.0000

     total cpu time spent up to now is       29.1 secs

     End of self-consistent calculation

 ------ SPIN UP ------------


          k = 0.0000 0.0000 0.0000 (  6451 PWs)   bands (ev):

   -43.8673 -43.8643 -43.8389 -43.8374 -43.8359 -43.8339 -43.7639 -43.7635
   -43.7609 -43.7604  -9.0052  -8.8359  -5.2509  -5.2023  -5.1968  -5.1612
    -5.1574  -5.1505  -5.1476  -5.1436  -5.1411  -5.0922  -1.2820   1.4320
     2.1503   2.1726   2.2209   2.6296   2.6494   5.1342   8.1252   8.1713
     8.2467   8.6255   9.2551   9.2626  10.4052  11.1354  11.2635  12.2975

          k = 0.0000 0.0000 0.0395 (  6487 PWs)   bands (ev):

   -43.8671 -43.8642 -43.8391 -43.8375 -43.8362 -43.8342 -43.7640 -43.7638
   -43.7610 -43.7607  -8.9638  -8.8791  -5.2213  -5.1930  -5.1889  -5.1724
    -5.1699  -5.1495  -5.1455  -5.1428  -5.1420  -5.1412  -0.8575   0.2404
     2.2703   2.3193   2.5030   2.5335   3.4707   4.7313   7.9462   8.1356
     8.3689   8.3954   8.9053   8.9139  11.1372  11.5822  11.7149  12.1989

          k = 0.0003 0.0822 0.0000 (  6500 PWs)   bands (ev):

   -43.8673 -43.8643 -43.8391 -43.8374 -43.8362 -43.8342 -43.7642 -43.7638
   -43.7611 -43.7607  -8.8980  -8.7994  -5.2883  -5.2318  -5.2082  -5.1737
    -5.1533  -5.1433  -5.1278  -5.1243  -5.0532  -4.9895  -0.7169   0.5858
     1.0060   1.3055   1.8021   2.4772   4.1209   5.5993   6.2882   7.3689
     7.6599   8.9649   9.6211   9.8233  10.2698  11.2032  11.5247  12.6361

          k = 0.0003 0.0822 0.0395 (  6503 PWs)   bands (ev):

   -43.8674 -43.8644 -43.8390 -43.8374 -43.8361 -43.8341 -43.7641 -43.7638
   -43.7611 -43.7608  -8.8736  -8.8240  -5.2713  -5.2438  -5.1934  -5.1693
    -5.1616  -5.1571  -5.1257  -5.1235  -5.0440  -5.0132  -0.5118   0.0505
     1.2376   1.5647   1.9505   2.2845   4.1245   4.9621   6.8123   7.2736
     8.1274   8.9652   9.1696   9.2293  10.6690  11.3163  12.0354  12.8593

          k = 0.0003 0.0822-0.0395 (  6500 PWs)   bands (ev):

   -43.8673 -43.8644 -43.8390 -43.8374 -43.8361 -43.8341 -43.7641 -43.7638
   -43.7611 -43.7607  -8.8734  -8.8242  -5.2718  -5.2434  -5.1934  -5.1692
    -5.1617  -5.1572  -5.1253  -5.1238  -5.0443  -5.0128  -0.5098   0.0471
     1.2369   1.5669   1.9505   2.2845   4.1280   4.9582   6.8086   7.2776
     8.1270   8.9690   9.1698   9.2246  10.6714  11.3131  12.0321  12.8578

          k = 0.0708 0.0413 0.0000 (  6497 PWs)   bands (ev):

   -43.8673 -43.8643 -43.8390 -43.8375 -43.8361 -43.8342 -43.7642 -43.7638
   -43.7611 -43.7607  -8.8980  -8.8010  -5.2898  -5.2314  -5.2066  -5.1722
    -5.1526  -5.1433  -5.1291  -5.1254  -5.0531  -4.9884  -0.7205   0.5711
     0.9957   1.2955   1.8213   2.4875   4.1339   5.6166   6.2912   7.3718
     7.6848   8.9683   9.6383   9.8261  10.2429  11.1941  11.5340  12.6463

          k = 0.0708 0.0413 0.0395 (  6505 PWs)   bands (ev):

   -43.8674 -43.8644 -43.8391 -43.8374 -43.8362 -43.8342 -43.7641 -43.7639
   -43.7611 -43.7608  -8.8739  -8.8254  -5.2720  -5.2433  -5.1923  -5.1681
    -5.1614  -5.1562  -5.1264  -5.1250  -5.0443  -5.0127  -0.5162   0.0382
     1.2277   1.5564   1.9678   2.2978   4.1302   4.9683   6.8228   7.2871
     8.1448   8.9761   9.1808   9.2451  10.6453  11.2876  12.0438  12.8696

          k = 0.0708 0.0413-0.0395 (  6504 PWs)   bands (ev):

   -43.8674 -43.8644 -43.8390 -43.8374 -43.8361 -43.8342 -43.7641 -43.7639
   -43.7611 -43.7608  -8.8740  -8.8253  -5.2723  -5.2430  -5.1924  -5.1681
    -5.1613  -5.1562  -5.1268  -5.1247  -5.0443  -5.0126  -0.5173   0.0386
     1.2271   1.5584   1.9681   2.2973   4.1327   4.9641   6.8204   7.2896
     8.1460   8.9766   9.1760   9.2491  10.6446  11.2889  12.0395  12.8685

          k = 0.0711 0.1235 0.0000 (  6501 PWs)   bands (ev):

   -43.8673 -43.8643 -43.8389 -43.8373 -43.8360 -43.8340 -43.7641 -43.7640
   -43.7611 -43.7609  -8.8167  -8.8114  -5.2711  -5.2680  -5.2275  -5.1498
    -5.1483  -5.1469  -5.1328  -5.1285  -4.9685  -4.9663  -0.0084  -0.0020
     1.0109   1.0421   1.0498   1.9490   5.3543   5.3648   5.8295   7.4779
     7.4895   8.0929  10.0913  10.1213  11.0645  11.7040  12.1532  12.2010

          k = 0.0711 0.1236 0.0396 (  6531 PWs)   bands (ev):

   -43.8674 -43.8645 -43.8391 -43.8375 -43.8362 -43.8342 -43.7642 -43.7640
   -43.7612 -43.7610  -8.8158  -8.8117  -5.2651  -5.2630  -5.2084  -5.1687
    -5.1513  -5.1491  -5.1321  -5.1294  -4.9734  -4.9716  -0.1658  -0.1620
     1.2051   1.3923   1.3946   1.6608   4.7601   4.7715   6.4018   7.5247
     7.8917   7.8935  10.4797  10.4953  10.9364  10.9963  12.1845  12.2099

          k = 0.0711 0.1235-0.0395 (  6535 PWs)   bands (ev):

   -43.8675 -43.8645 -43.8391 -43.8375 -43.8362 -43.8342 -43.7642 -43.7641
   -43.7612 -43.7610  -8.8159  -8.8117  -5.2648  -5.2634  -5.2084  -5.1687
    -5.1513  -5.1491  -5.1322  -5.1294  -4.9733  -4.9717  -0.1666  -0.1612
     1.2051   1.3902   1.3966   1.6608   4.7618   4.7698   6.4018   7.5248
     7.8882   7.8969  10.4801  10.4950  10.9360  10.9969  12.1849  12.2094

          k = 0.0705-0.0409 0.0000 (  6499 PWs)   bands (ev):

   -43.8674 -43.8644 -43.8390 -43.8375 -43.8360 -43.8342 -43.7641 -43.7640
   -43.7610 -43.7610  -8.8988  -8.8039  -5.2928  -5.2304  -5.2048  -5.1716
    -5.1542  -5.1436  -5.1276  -5.1235  -5.0545  -4.9879  -0.7298   0.5501
     0.9808   1.2799   1.8554   2.5087   4.1495   5.6450   6.2943   7.3843
     7.7305   8.9745   9.6619   9.8414  10.1999  11.1809  11.5557  12.6677

          k = 0.0706-0.0409 0.0395 (  6499 PWs)   bands (ev):

   -43.8674 -43.8645 -43.8390 -43.8373 -43.8361 -43.8340 -43.7641 -43.7640
   -43.7610 -43.7610  -8.8751  -8.8278  -5.2739  -5.2431  -5.1909  -5.1675
    -5.1609  -5.1567  -5.1251  -5.1229  -5.0461  -5.0135  -0.5272   0.0203
     1.2112   1.5456   1.9993   2.3232   4.1385   4.9750   6.8379   7.3114
     8.1870   8.9990   9.2043   9.2631  10.6041  11.2496  12.0588  12.8936

          k = 0.0705-0.0409-0.0395 (  6495 PWs)   bands (ev):

   -43.8674 -43.8645 -43.8390 -43.8373 -43.8361 -43.8340 -43.7641 -43.7640
   -43.7610 -43.7610  -8.8754  -8.8275  -5.2739  -5.2429  -5.1907  -5.1674
    -5.1610  -5.1567  -5.1248  -5.1231  -5.0462  -5.0134  -0.5301   0.0237
     1.2130   1.5444   1.9998   2.3227   4.1347   4.9770   6.8408   7.3097
     8.1883   9.0002   9.2050   9.2592  10.6025  11.2505  12.0597  12.8909

 ------ SPIN DOWN ----------


          k = 0.0000 0.0000 0.0000 (  6451 PWs)   bands (ev):

   -43.8676 -43.8646 -43.8393 -43.8377 -43.8362 -43.8343 -43.7644 -43.7639
   -43.7613 -43.7609  -9.0076  -8.8385  -5.2508  -5.2022  -5.1967  -5.1610
    -5.1572  -5.1503  -5.1474  -5.1435  -5.1409  -5.0922  -1.2821   1.4308
     2.1493   2.1716   2.2182   2.6266   2.6462   5.1346   8.1260   8.1722
     8.2464   8.6258   9.2556   9.2631  10.4052  11.1349  11.2630  12.2974

          k = 0.0000 0.0000 0.0395 (  6487 PWs)   bands (ev):

   -43.8675 -43.8645 -43.8395 -43.8379 -43.8365 -43.8346 -43.7645 -43.7642
   -43.7614 -43.7612  -8.9663  -8.8817  -5.2213  -5.1929  -5.1888  -5.1723
    -5.1698  -5.1493  -5.1453  -5.1426  -5.1418  -5.1411  -0.8577   0.2400
     2.2676   2.3164   2.5002   2.5305   3.4708   4.7315   7.9460   8.1358
     8.3697   8.3962   8.9059   8.9145  11.1371  11.5817  11.7143  12.1989

          k = 0.0003 0.0822 0.0000 (  6500 PWs)   bands (ev):

   -43.8676 -43.8646 -43.8394 -43.8378 -43.8365 -43.8346 -43.7646 -43.7642
   -43.7616 -43.7612  -8.9006  -8.8020  -5.2882  -5.2317  -5.2081  -5.1735
    -5.1531  -5.1431  -5.1276  -5.1242  -5.0532  -4.9895  -0.7171   0.5850
     1.0044   1.3041   1.7997   2.4743   4.1200   5.5991   6.2887   7.3690
     7.6607   8.9647   9.6209   9.8236  10.2696  11.2028  11.5247  12.6356

          k = 0.0003 0.0822 0.0395 (  6503 PWs)   bands (ev):

   -43.8677 -43.8647 -43.8394 -43.8377 -43.8365 -43.8345 -43.7646 -43.7643
   -43.7616 -43.7612  -8.8762  -8.8266  -5.2712  -5.2437  -5.1933  -5.1692
    -5.1615  -5.1569  -5.1255  -5.1233  -5.0440  -5.0132  -0.5121   0.0500
     1.2358   1.5628   1.9481   2.2818   4.1244   4.9620   6.8124   7.2736
     8.1280   8.9651   9.1699   9.2292  10.6685  11.3161  12.0352  12.8587

          k = 0.0003 0.0822-0.0395 (  6500 PWs)   bands (ev):

   -43.8677 -43.8647 -43.8394 -43.8377 -43.8365 -43.8345 -43.7646 -43.7642
   -43.7615 -43.7612  -8.8760  -8.8268  -5.2717  -5.2433  -5.1933  -5.1691
    -5.1616  -5.1570  -5.1251  -5.1236  -5.0443  -5.0128  -0.5101   0.0465
     1.2351   1.5651   1.9481   2.2819   4.1279   4.9582   6.8087   7.2777
     8.1277   8.9689   9.1701   9.2245  10.6709  11.3129  12.0319  12.8571

          k = 0.0708 0.0413 0.0000 (  6497 PWs)   bands (ev):

   -43.8676 -43.8646 -43.8394 -43.8378 -43.8365 -43.8345 -43.7646 -43.7642
   -43.7616 -43.7612  -8.9005  -8.8036  -5.2897  -5.2312  -5.2065  -5.1721
    -5.1524  -5.1432  -5.1289  -5.1253  -5.0531  -4.9884  -0.7206   0.5703
     0.9941   1.2941   1.8189   2.4846   4.1330   5.6163   6.2917   7.3719
     7.6856   8.9681   9.6381   9.8264  10.2428  11.1937  11.5340  12.6457

          k = 0.0708 0.0413 0.0395 (  6505 PWs)   bands (ev):

   -43.8677 -43.8647 -43.8394 -43.8378 -43.8365 -43.8345 -43.7646 -43.7643
   -43.7615 -43.7613  -8.8764  -8.8279  -5.2719  -5.2432  -5.1922  -5.1679
    -5.1613  -5.1560  -5.1263  -5.1248  -5.0443  -5.0127  -0.5165   0.0377
     1.2259   1.5546   1.9653   2.2951   4.1301   4.9682   6.8229   7.2871
     8.1454   8.9760   9.1810   9.2450  10.6448  11.2874  12.0435  12.8690

          k = 0.0708 0.0413-0.0395 (  6504 PWs)   bands (ev):

   -43.8677 -43.8647 -43.8394 -43.8378 -43.8365 -43.8345 -43.7646 -43.7643
   -43.7615 -43.7613  -8.8765  -8.8278  -5.2722  -5.2429  -5.1923  -5.1679
    -5.1611  -5.1560  -5.1266  -5.1245  -5.0443  -5.0126  -0.5176   0.0381
     1.2253   1.5565   1.9656   2.2946   4.1325   4.9640   6.8205   7.2896
     8.1466   8.9765   9.1762   9.2490  10.6441  11.2888  12.0393  12.8678

          k = 0.0711 0.1235 0.0000 (  6501 PWs)   bands (ev):

   -43.8676 -43.8646 -43.8393 -43.8377 -43.8363 -43.8344 -43.7646 -43.7644
   -43.7615 -43.7614  -8.8193  -8.8140  -5.2710  -5.2679  -5.2274  -5.1496
    -5.1482  -5.1468  -5.1326  -5.1283  -4.9685  -4.9663  -0.0088  -0.0023
     1.0091   1.0406   1.0482   1.9464   5.3534   5.3639   5.8300   7.4784
     7.4900   8.0924  10.0913  10.1213  11.0633  11.7035  12.1534  12.2011

          k = 0.0711 0.1236 0.0396 (  6531 PWs)   bands (ev):

   -43.8677 -43.8648 -43.8394 -43.8378 -43.8365 -43.8346 -43.7647 -43.7645
   -43.7616 -43.7614  -8.8184  -8.8143  -5.2650  -5.2629  -5.2083  -5.1686
    -5.1511  -5.1489  -5.1320  -5.1292  -4.9734  -4.9716  -0.1662  -0.1625
     1.2030   1.3906   1.3930   1.6584   4.7599   4.7713   6.4020   7.5245
     7.8916   7.8934  10.4800  10.4956  10.9353  10.9955  12.1845  12.2099

          k = 0.0711 0.1235-0.0395 (  6535 PWs)   bands (ev):

   -43.8678 -43.8648 -43.8395 -43.8378 -43.8366 -43.8346 -43.7647 -43.7645
   -43.7616 -43.7615  -8.8184  -8.8142  -5.2646  -5.2633  -5.2083  -5.1686
    -5.1511  -5.1490  -5.1320  -5.1292  -4.9733  -4.9717  -0.1671  -0.1616
     1.2030   1.3886   1.3950   1.6584   4.7616   4.7695   6.4020   7.5246
     7.8881   7.8968  10.4805  10.4953  10.9349  10.9961  12.1849  12.2094

          k = 0.0705-0.0409 0.0000 (  6499 PWs)   bands (ev):

   -43.8677 -43.8647 -43.8393 -43.8379 -43.8364 -43.8346 -43.7645 -43.7645
   -43.7615 -43.7614  -8.9013  -8.8065  -5.2927  -5.2302  -5.2047  -5.1714
    -5.1540  -5.1435  -5.1274  -5.1233  -5.0545  -4.9879  -0.7300   0.5494
     0.9793   1.2784   1.8529   2.5056   4.1487   5.6447   6.2948   7.3845
     7.7313   8.9743   9.6617   9.8417  10.1998  11.1805  11.5558  12.6671

          k = 0.0706-0.0409 0.0395 (  6499 PWs)   bands (ev):

   -43.8678 -43.8648 -43.8394 -43.8377 -43.8365 -43.8344 -43.7645 -43.7645
   -43.7615 -43.7614  -8.8776  -8.8304  -5.2737  -5.2430  -5.1908  -5.1673
    -5.1607  -5.1565  -5.1250  -5.1227  -5.0460  -5.0135  -0.5274   0.0198
     1.2095   1.5438   1.9967   2.3204   4.1384   4.9749   6.8380   7.3115
     8.1876   8.9989   9.2046   9.2630  10.6037  11.2495  12.0586  12.8929

          k = 0.0705-0.0409-0.0395 (  6495 PWs)   bands (ev):

   -43.8677 -43.8648 -43.8393 -43.8376 -43.8364 -43.8344 -43.7645 -43.7645
   -43.7615 -43.7614  -8.8779  -8.8301  -5.2738  -5.2427  -5.1906  -5.1673
    -5.1609  -5.1566  -5.1246  -5.1230  -5.0462  -5.0134  -0.5304   0.0232
     1.2113   1.5427   1.9972   2.3198   4.1346   4.9769   6.8409   7.3097
     8.1889   9.0001   9.2053   9.2591  10.6021  11.2504  12.0594  12.8903

     the Fermi energy is     2.6402 ev

!    total energy              =    -717.71060063 Ry
     Harris-Foulkes estimate   =    -717.71060152 Ry
     estimated scf accuracy    <       0.00000140 Ry

     total magnetization       =    -0.00 Bohr mag/cell
     absolute magnetization    =     0.00 Bohr mag/cell

     convergence has been achieved in   3 iterations

     Forces acting on atoms (cartesian axes, Ry/au):

     atom    1 type  1   force =     0.00056422   -0.00066724   -0.05327506
     atom    2 type  1   force =    -0.00082637    0.00106901   -0.05613663
     atom    3 type  2   force =     0.00045488   -0.00103878    0.05655287
     atom    4 type  2   force =    -0.00019274    0.00063701    0.05285883

     Total force =     0.109481     Total SCF correction =     0.004432

     Entering Dynamics:    iteration =     2
                           time      =   0.0020 pico-seconds


     Andersen thermostat:    4 collisions

ATOMIC_POSITIONS (alat)
Cd       0.004014155   2.678012530   8.795195635
Cd       2.336260904   1.367742794   4.577016723
Se      -0.006690490   2.703162236   2.887158375
Se       2.349856767   1.341993161   7.103410273


     kinetic energy (Ekin) =     0.01426011 Ry
     temperature           =   500.33135792 K 
     Ekin + Etot (const)   =  -717.69634052 Ry
     Message from routine dynamics:
     Total linear momentum <> 0

     Linear momentum :    8.1934482252   -0.9804109934   -3.1346044084

     Writing output data file x0.save
     NEW-OLD atomic charge density approx. for the potential

     total cpu time spent up to now is       30.9 secs

     Self-consistent Calculation

     iteration #  1     ecut=    50.00 Ry     beta= 0.45
     Davidson diagonalization with overlap
     ethr =  1.00E-06,  avg # of iterations =  3.6

     Threshold (ethr) on eigenvalues was too large:
     Diagonalizing with lowered threshold

     Davidson diagonalization with overlap
     ethr =  4.32E-08,  avg # of iterations =  1.0

     total cpu time spent up to now is       35.7 secs

     total energy              =    -717.71033352 Ry
     Harris-Foulkes estimate   =    -717.71034796 Ry
     estimated scf accuracy    <       0.00002419 Ry

     total magnetization       =    -0.00 Bohr mag/cell
     absolute magnetization    =     0.00 Bohr mag/cell

     iteration #  2     ecut=    50.00 Ry     beta= 0.45
     Davidson diagonalization with overlap
     ethr =  4.32E-08,  avg # of iterations =  2.0

     total cpu time spent up to now is       37.6 secs

     total energy              =    -717.71033796 Ry
     Harris-Foulkes estimate   =    -717.71034973 Ry
     estimated scf accuracy    <       0.00003511 Ry

     total magnetization       =    -0.00 Bohr mag/cell
     absolute magnetization    =     0.00 Bohr mag/cell

     iteration #  3     ecut=    50.00 Ry     beta= 0.45
     Davidson diagonalization with overlap
     ethr =  4.32E-08,  avg # of iterations =  1.4

     Magnetic moment per site:
     atom:    1    charge:    2.2843    magn:   -0.0000    constr:    0.0000
     atom:    2    charge:    2.2846    magn:   -0.0000    constr:    0.0000
     atom:    3    charge:    8.0677    magn:   -0.0000    constr:    0.0000
     atom:    4    charge:    8.0709    magn:   -0.0000    constr:    0.0000

     total cpu time spent up to now is       39.3 secs

     End of self-consistent calculation

 ------ SPIN UP ------------


          k = 0.0000 0.0000 0.0000 (  6451 PWs)   bands (ev):

   -43.8657 -43.8640 -43.8374 -43.8356 -43.8353 -43.8337 -43.7621 -43.7617
   -43.7604 -43.7600  -9.0065  -8.8372  -5.2523  -5.2039  -5.1987  -5.1627
    -5.1589  -5.1520  -5.1492  -5.1457  -5.1430  -5.0939  -1.2830   1.4299
     2.1528   2.1722   2.2194   2.6295   2.6494   5.1360   8.1256   8.1688
     8.2497   8.6284   9.2572   9.2623  10.4048  11.1366  11.2614  12.2980

          k = 0.0000 0.0000 0.0395 (  6487 PWs)   bands (ev):

   -43.8655 -43.8639 -43.8376 -43.8357 -43.8357 -43.8341 -43.7622 -43.7620
   -43.7605 -43.7603  -8.9651  -8.8804  -5.2228  -5.1946  -5.1907  -5.1741
    -5.1716  -5.1510  -5.1471  -5.1447  -5.1437  -5.1429  -0.8586   0.2393
     2.2713   2.3179   2.5034   2.5331   3.4711   4.7324   7.9474   8.1378
     8.3684   8.3964   8.9042   8.9162  11.1374  11.5841  11.7119  12.1993

          k = 0.0003 0.0822 0.0000 (  6500 PWs)   bands (ev):

   -43.8656 -43.8640 -43.8375 -43.8357 -43.8356 -43.8341 -43.7623 -43.7620
   -43.7607 -43.7603  -8.8993  -8.8009  -5.2900  -5.2338  -5.2099  -5.1754
    -5.1551  -5.1451  -5.1293  -5.1259  -5.0547  -4.9910  -0.7166   0.5839
     1.0039   1.3044   1.8028   2.4777   4.1246   5.5990   6.2912   7.3690
     7.6591   8.9617   9.6225   9.8214  10.2728  11.2033  11.5231  12.6357

          k = 0.0003 0.0822 0.0395 (  6503 PWs)   bands (ev):

   -43.8657 -43.8642 -43.8374 -43.8357 -43.8355 -43.8340 -43.7623 -43.7620
   -43.7606 -43.7603  -8.8748  -8.8255  -5.2732  -5.2457  -5.1951  -5.1711
    -5.1634  -5.1590  -5.1273  -5.1250  -5.0455  -5.0146  -0.5114   0.0471
     1.2377   1.5646   1.9512   2.2852   4.1255   4.9597   6.8150   7.2769
     8.1263   8.9678   9.1684   9.2278  10.6724  11.3144  12.0358  12.8597

          k = 0.0003 0.0822-0.0395 (  6500 PWs)   bands (ev):

   -43.8657 -43.8642 -43.8374 -43.8357 -43.8355 -43.8340 -43.7623 -43.7620
   -43.7606 -43.7603  -8.8748  -8.8255  -5.2735  -5.2453  -5.1950  -5.1710
    -5.1635  -5.1591  -5.1269  -5.1253  -5.0458  -5.0143  -0.5114   0.0464
     1.2370   1.5662   1.9513   2.2851   4.1274   4.9570   6.8125   7.2796
     8.1265   8.9674   9.1681   9.2284  10.6727  11.3146  12.0327  12.8589

          k = 0.0708 0.0413 0.0000 (  6497 PWs)   bands (ev):

   -43.8657 -43.8641 -43.8375 -43.8358 -43.8355 -43.8341 -43.7623 -43.7619
   -43.7607 -43.7603  -8.8993  -8.8024  -5.2917  -5.2329  -5.2086  -5.1740
    -5.1544  -5.1453  -5.1308  -5.1270  -5.0547  -4.9900  -0.7218   0.5725
     0.9969   1.2948   1.8209   2.4878   4.1321   5.6181   6.2873   7.3731
     7.6832   8.9723   9.6425   9.8263  10.2409  11.1951  11.5351  12.6480

          k = 0.0708 0.0413 0.0395 (  6505 PWs)   bands (ev):

   -43.8658 -43.8642 -43.8375 -43.8358 -43.8355 -43.8340 -43.7623 -43.7620
   -43.7607 -43.7604  -8.8751  -8.8268  -5.2739  -5.2449  -5.1942  -5.1698
    -5.1633  -5.1580  -5.1282  -5.1264  -5.0460  -5.0143  -0.5163   0.0382
     1.2267   1.5569   1.9674   2.2980   4.1316   4.9685   6.8192   7.2878
     8.1435   8.9777   9.1810   9.2481  10.6435  11.2881  12.0433  12.8709

          k = 0.0708 0.0413-0.0395 (  6504 PWs)   bands (ev):

   -43.8658 -43.8642 -43.8374 -43.8357 -43.8355 -43.8340 -43.7623 -43.7620
   -43.7606 -43.7604  -8.8753  -8.8266  -5.2740  -5.2447  -5.1942  -5.1698
    -5.1632  -5.1580  -5.1285  -5.1262  -5.0459  -5.0143  -0.5185   0.0399
     1.2276   1.5576   1.9679   2.2974   4.1310   4.9669   6.8197   7.2883
     8.1450   8.9802   9.1779   9.2468  10.6425  11.2886  12.0412  12.8681

          k = 0.0711 0.1235 0.0000 (  6501 PWs)   bands (ev):

   -43.8656 -43.8641 -43.8373 -43.8356 -43.8353 -43.8339 -43.7623 -43.7622
   -43.7606 -43.7605  -8.8172  -8.8136  -5.2729  -5.2698  -5.2294  -5.1513
    -5.1501  -5.1489  -5.1345  -5.1300  -4.9699  -4.9681  -0.0063  -0.0041
     1.0116   1.0418   1.0493   1.9497   5.3563   5.3625   5.8283   7.4775
     7.4874   8.0923  10.0928  10.1256  11.0650  11.7042  12.1541  12.2038

          k = 0.0711 0.1236 0.0396 (  6531 PWs)   bands (ev):

   -43.8658 -43.8642 -43.8375 -43.8357 -43.8356 -43.8341 -43.7624 -43.7622
   -43.7607 -43.7606  -8.8160  -8.8142  -5.2669  -5.2649  -5.2102  -5.1707
    -5.1526  -5.1513  -5.1338  -5.1309  -4.9746  -4.9735  -0.1654  -0.1625
     1.2052   1.3924   1.3947   1.6612   4.7617   4.7689   6.4008   7.5241
     7.8909   7.8937  10.4824  10.4975  10.9368  10.9963  12.1861  12.2108

          k = 0.0711 0.1235-0.0395 (  6535 PWs)   bands (ev):

   -43.8659 -43.8643 -43.8375 -43.8358 -43.8356 -43.8341 -43.7624 -43.7622
   -43.7607 -43.7606  -8.8162  -8.8140  -5.2666  -5.2652  -5.2102  -5.1707
    -5.1526  -5.1514  -5.1338  -5.1309  -4.9745  -4.9737  -0.1651  -0.1629
     1.2052   1.3911   1.3959   1.6612   4.7632   4.7673   6.4007   7.5243
     7.8886   7.8958  10.4822  10.4979  10.9362  10.9970  12.1873  12.2094

          k = 0.0705-0.0409 0.0000 (  6499 PWs)   bands (ev):

   -43.8658 -43.8642 -43.8374 -43.8357 -43.8355 -43.8341 -43.7622 -43.7622
   -43.7606 -43.7605  -8.9002  -8.8052  -5.2944  -5.2322  -5.2067  -5.1733
    -5.1559  -5.1455  -5.1292  -5.1251  -5.0561  -4.9896  -0.7307   0.5519
     0.9818   1.2796   1.8546   2.5088   4.1483   5.6449   6.2925   7.3841
     7.7293   8.9753   9.6624   9.8424  10.2019  11.1834  11.5553  12.6688

          k = 0.0706-0.0409 0.0395 (  6499 PWs)   bands (ev):

   -43.8658 -43.8642 -43.8375 -43.8357 -43.8354 -43.8339 -43.7622 -43.7622
   -43.7606 -43.7606  -8.8764  -8.8291  -5.2755  -5.2449  -5.1927  -5.1692
    -5.1628  -5.1584  -5.1269  -5.1245  -5.0476  -5.0152  -0.5280   0.0212
     1.2126   1.5456   1.9988   2.3230   4.1364   4.9760   6.8377   7.3102
     8.1863   9.0006   9.2051   9.2603  10.6058  11.2517  12.0602  12.8936

          k = 0.0705-0.0409-0.0395 (  6495 PWs)   bands (ev):

   -43.8658 -43.8642 -43.8374 -43.8356 -43.8354 -43.8339 -43.7623 -43.7622
   -43.7606 -43.7605  -8.8767  -8.8289  -5.2757  -5.2446  -5.1926  -5.1691
    -5.1630  -5.1585  -5.1266  -5.1247  -5.0478  -5.0150  -0.5302   0.0238
     1.2131   1.5454   1.9991   2.3226   4.1353   4.9758   6.8385   7.3100
     8.1873   8.9989   9.2053   9.2612  10.6041  11.2537  12.0592  12.8923

 ------ SPIN DOWN ----------


          k = 0.0000 0.0000 0.0000 (  6451 PWs)   bands (ev):

   -43.8658 -43.8641 -43.8375 -43.8357 -43.8355 -43.8339 -43.7623 -43.7618
   -43.7606 -43.7601  -9.0073  -8.8380  -5.2523  -5.2039  -5.1987  -5.1627
    -5.1589  -5.1520  -5.1491  -5.1456  -5.1430  -5.0939  -1.2830   1.4296
     2.1525   2.1718   2.2185   2.6286   2.6483   5.1362   8.1258   8.1690
     8.2496   8.6285   9.2574   9.2624  10.4048  11.1364  11.2612  12.2979

          k = 0.0000 0.0000 0.0395 (  6487 PWs)   bands (ev):

   -43.8656 -43.8640 -43.8377 -43.8358 -43.8358 -43.8342 -43.7623 -43.7621
   -43.7607 -43.7605  -8.9659  -8.8813  -5.2228  -5.1946  -5.1906  -5.1741
    -5.1716  -5.1510  -5.1471  -5.1446  -5.1437  -5.1429  -0.8586   0.2392
     2.2704   2.3169   2.5024   2.5320   3.4711   4.7325   7.9474   8.1379
     8.3687   8.3966   8.9043   8.9163  11.1373  11.5839  11.7117  12.1993

          k = 0.0003 0.0822 0.0000 (  6500 PWs)   bands (ev):

   -43.8657 -43.8641 -43.8376 -43.8358 -43.8357 -43.8342 -43.7625 -43.7621
   -43.7608 -43.7605  -8.9001  -8.8017  -5.2900  -5.2338  -5.2099  -5.1754
    -5.1550  -5.1450  -5.1293  -5.1259  -5.0547  -4.9910  -0.7167   0.5836
     1.0034   1.3039   1.8020   2.4768   4.1243   5.5989   6.2914   7.3690
     7.6593   8.9617   9.6224   9.8215  10.2727  11.2031  11.5231  12.6355

          k = 0.0003 0.0822 0.0395 (  6503 PWs)   bands (ev):

   -43.8658 -43.8643 -43.8375 -43.8358 -43.8357 -43.8341 -43.7624 -43.7621
   -43.7608 -43.7605  -8.8756  -8.8264  -5.2731  -5.2457  -5.1951  -5.1710
    -5.1634  -5.1589  -5.1272  -5.1250  -5.0455  -5.0146  -0.5115   0.0469
     1.2371   1.5640   1.9504   2.2843   4.1255   4.9597   6.8150   7.2769
     8.1264   8.9678   9.1685   9.2278  10.6723  11.3143  12.0357  12.8595

          k = 0.0003 0.0822-0.0395 (  6500 PWs)   bands (ev):

   -43.8658 -43.8642 -43.8375 -43.8358 -43.8356 -43.8341 -43.7624 -43.7621
   -43.7608 -43.7605  -8.8756  -8.8264  -5.2735  -5.2453  -5.1950  -5.1709
    -5.1635  -5.1590  -5.1269  -5.1252  -5.0458  -5.0143  -0.5115   0.0463
     1.2364   1.5656   1.9505   2.2842   4.1274   4.9570   6.8125   7.2796
     8.1267   8.9674   9.1682   9.2284  10.6725  11.3145  12.0326  12.8586

          k = 0.0708 0.0413 0.0000 (  6497 PWs)   bands (ev):

   -43.8658 -43.8642 -43.8376 -43.8359 -43.8356 -43.8342 -43.7625 -43.7621
   -43.7608 -43.7605  -8.9001  -8.8032  -5.2917  -5.2329  -5.2085  -5.1739
    -5.1543  -5.1453  -5.1307  -5.1269  -5.0547  -4.9900  -0.7218   0.5722
     0.9964   1.2944   1.8201   2.4868   4.1318   5.6181   6.2875   7.3731
     7.6834   8.9722   9.6425   9.8264  10.2408  11.1950  11.5351  12.6477

          k = 0.0708 0.0413 0.0395 (  6505 PWs)   bands (ev):

   -43.8659 -43.8643 -43.8376 -43.8359 -43.8356 -43.8341 -43.7625 -43.7622
   -43.7608 -43.7605  -8.8759  -8.8277  -5.2738  -5.2449  -5.1942  -5.1698
    -5.1633  -5.1580  -5.1281  -5.1264  -5.0460  -5.0143  -0.5164   0.0380
     1.2261   1.5563   1.9666   2.2970   4.1315   4.9685   6.8193   7.2878
     8.1436   8.9777   9.1810   9.2481  10.6433  11.2880  12.0432  12.8707

          k = 0.0708 0.0413-0.0395 (  6504 PWs)   bands (ev):

   -43.8659 -43.8643 -43.8376 -43.8358 -43.8356 -43.8342 -43.7624 -43.7622
   -43.7608 -43.7606  -8.8761  -8.8274  -5.2740  -5.2447  -5.1942  -5.1698
    -5.1632  -5.1579  -5.1284  -5.1261  -5.0459  -5.0143  -0.5185   0.0397
     1.2270   1.5570   1.9671   2.2964   4.1309   4.9668   6.8197   7.2883
     8.1452   8.9801   9.1780   9.2467  10.6423  11.2885  12.0412  12.8678

          k = 0.0711 0.1235 0.0000 (  6501 PWs)   bands (ev):

   -43.8657 -43.8642 -43.8375 -43.8357 -43.8354 -43.8340 -43.7624 -43.7623
   -43.7608 -43.7607  -8.8180  -8.8144  -5.2729  -5.2698  -5.2294  -5.1513
    -5.1501  -5.1489  -5.1344  -5.1300  -4.9699  -4.9681  -0.0064  -0.0042
     1.0110   1.0414   1.0488   1.9488   5.3560   5.3622   5.8285   7.4777
     7.4876   8.0921  10.0928  10.1256  11.0646  11.7040  12.1541  12.2038

          k = 0.0711 0.1236 0.0396 (  6531 PWs)   bands (ev):

   -43.8659 -43.8643 -43.8376 -43.8359 -43.8357 -43.8342 -43.7625 -43.7624
   -43.7609 -43.7607  -8.8168  -8.8150  -5.2669  -5.2649  -5.2102  -5.1707
    -5.1525  -5.1513  -5.1338  -5.1309  -4.9746  -4.9735  -0.1655  -0.1627
     1.2045   1.3919   1.3941   1.6604   4.7616   4.7688   6.4008   7.5240
     7.8908   7.8936  10.4825  10.4976  10.9364  10.9960  12.1861  12.2108

          k = 0.0711 0.1235-0.0395 (  6535 PWs)   bands (ev):

   -43.8659 -43.8644 -43.8376 -43.8359 -43.8357 -43.8342 -43.7625 -43.7624
   -43.7609 -43.7607  -8.8170  -8.8148  -5.2665  -5.2652  -5.2102  -5.1707
    -5.1525  -5.1513  -5.1338  -5.1309  -4.9745  -4.9737  -0.1652  -0.1630
     1.2045   1.3906   1.3954   1.6604   4.7631   4.7672   6.4008   7.5242
     7.8886   7.8957  10.4823  10.4980  10.9358  10.9967  12.1873  12.2094

          k = 0.0705-0.0409 0.0000 (  6499 PWs)   bands (ev):

   -43.8658 -43.8643 -43.8375 -43.8358 -43.8356 -43.8342 -43.7624 -43.7623
   -43.7607 -43.7607  -8.9010  -8.8060  -5.2944  -5.2322  -5.2067  -5.1733
    -5.1558  -5.1455  -5.1292  -5.1251  -5.0561  -4.9896  -0.7307   0.5517
     0.9813   1.2792   1.8538   2.5078   4.1480   5.6449   6.2926   7.3841
     7.7295   8.9752   9.6623   9.8425  10.2019  11.1833  11.5553  12.6685

          k = 0.0706-0.0409 0.0395 (  6499 PWs)   bands (ev):

   -43.8659 -43.8643 -43.8376 -43.8358 -43.8355 -43.8340 -43.7624 -43.7624
   -43.7608 -43.7607  -8.8772  -8.8300  -5.2755  -5.2449  -5.1927  -5.1691
    -5.1628  -5.1584  -5.1268  -5.1244  -5.0476  -5.0152  -0.5281   0.0211
     1.2120   1.5451   1.9979   2.3220   4.1364   4.9760   6.8377   7.3102
     8.1865   9.0006   9.2052   9.2602  10.6056  11.2517  12.0601  12.8933

          k = 0.0705-0.0409-0.0395 (  6495 PWs)   bands (ev):

   -43.8659 -43.8643 -43.8375 -43.8357 -43.8355 -43.8340 -43.7624 -43.7623
   -43.7608 -43.7607  -8.8775  -8.8297  -5.2756  -5.2446  -5.1926  -5.1690
    -5.1630  -5.1585  -5.1266  -5.1246  -5.0478  -5.0151  -0.5303   0.0236
     1.2126   1.5449   1.9982   2.3216   4.1352   4.9758   6.8385   7.3100
     8.1874   8.9989   9.2054   9.2612  10.6039  11.2537  12.0591  12.8921

     the Fermi energy is     2.6412 ev

!    total energy              =    -717.71034326 Ry
     Harris-Foulkes estimate   =    -717.71034355 Ry
     estimated scf accuracy    <       0.00000065 Ry

     total magnetization       =    -0.00 Bohr mag/cell
     absolute magnetization    =     0.00 Bohr mag/cell

     convergence has been achieved in   3 iterations

     Forces acting on atoms (cartesian axes, Ry/au):

     atom    1 type  1   force =     0.00089013   -0.00118185   -0.05601098
     atom    2 type  1   force =    -0.00106124    0.00101544   -0.05434217
     atom    3 type  2   force =     0.00003325    0.00069772    0.05619101
     atom    4 type  2   force =     0.00013786   -0.00053131    0.05416213

     Total force =     0.110392     Total SCF correction =     0.003806

     Entering Dynamics:    iteration =     3
                           time      =   0.0030 pico-seconds


     Andersen thermostat:    4 collisions

ATOMIC_POSITIONS (alat)
Cd       0.001860020   2.678973227   8.795582461
Cd       2.337380230   1.368020046   4.576592211
Se      -0.003200841   2.702788235   2.886805989
Se       2.347958269   1.340463660   7.103820607


     kinetic energy (Ekin) =     0.01124061 Ry
     temperature           =   394.38892639 K 
     Ekin + Etot (const)   =  -717.69910264 Ry
     Message from routine dynamics:
     Total linear momentum <> 0

     Linear momentum :    1.1005957721   -6.9450097285   20.5696513591

     Writing output data file x0.save
     NEW-OLD atomic charge density approx. for the potential

     total cpu time spent up to now is       41.2 secs

     Self-consistent Calculation

     iteration #  1     ecut=    50.00 Ry     beta= 0.45
     Davidson diagonalization with overlap
     ethr =  1.00E-06,  avg # of iterations =  3.9

     Threshold (ethr) on eigenvalues was too large:
     Diagonalizing with lowered threshold

     Davidson diagonalization with overlap
     ethr =  1.13E-08,  avg # of iterations =  2.0

     Magnetic moment per site:
     atom:    1    charge:    2.2841    magn:   -0.0000    constr:    0.0000
     atom:    2    charge:    2.2847    magn:   -0.0000    constr:    0.0000
     atom:    3    charge:    8.0667    magn:   -0.0000    constr:    0.0000
     atom:    4    charge:    8.0707    magn:   -0.0000    constr:    0.0000

     total cpu time spent up to now is       46.1 secs

     End of self-consistent calculation

 ------ SPIN UP ------------


          k = 0.0000 0.0000 0.0000 (  6451 PWs)   bands (ev):

   -43.8693 -43.8597 -43.8407 -43.8392 -43.8311 -43.8295 -43.7657 -43.7653
   -43.7560 -43.7555  -9.0066  -8.8371  -5.2526  -5.2043  -5.1990  -5.1634
    -5.1597  -5.1522  -5.1497  -5.1451  -5.1429  -5.0941  -1.2830   1.4300
     2.1541   2.1708   2.2191   2.6297   2.6491   5.1359   8.1270   8.1682
     8.2489   8.6283   9.2547   9.2647  10.4047  11.1365  11.2615  12.2981

          k = 0.0000 0.0000 0.0395 (  6487 PWs)   bands (ev):

   -43.8691 -43.8596 -43.8410 -43.8394 -43.8314 -43.8297 -43.7658 -43.7656
   -43.7561 -43.7558  -8.9653  -8.8803  -5.2231  -5.1951  -5.1910  -5.1745
    -5.1720  -5.1515  -5.1481  -5.1452  -5.1430  -5.1424  -0.8586   0.2393
     2.2713   2.3176   2.5035   2.5329   3.4710   4.7323   7.9476   8.1377
     8.3675   8.3971   8.9045   8.9158  11.1373  11.5836  11.7125  12.1990

          k = 0.0003 0.0822 0.0000 (  6500 PWs)   bands (ev):

   -43.8692 -43.8597 -43.8409 -43.8394 -43.8313 -43.8297 -43.7659 -43.7656
   -43.7562 -43.7558  -8.8994  -8.8008  -5.2903  -5.2341  -5.2103  -5.1761
    -5.1549  -5.1453  -5.1310  -5.1248  -5.0549  -4.9912  -0.7165   0.5830
     1.0032   1.3041   1.8031   2.4778   4.1255   5.5989   6.2921   7.3692
     7.6591   8.9611   9.6224   9.8213  10.2726  11.2029  11.5228  12.6354

          k = 0.0003 0.0822 0.0395 (  6503 PWs)   bands (ev):

   -43.8694 -43.8598 -43.8409 -43.8393 -43.8313 -43.8296 -43.7659 -43.7656
   -43.7562 -43.7559  -8.8752  -8.8252  -5.2735  -5.2458  -5.1955  -5.1718
    -5.1636  -5.1587  -5.1287  -5.1239  -5.0459  -5.0146  -0.5126   0.0481
     1.2374   1.5641   1.9515   2.2853   4.1240   4.9607   6.8168   7.2764
     8.1268   8.9678   9.1660   9.2303  10.6711  11.3148  12.0359  12.8597

          k = 0.0003 0.0822-0.0395 (  6500 PWs)   bands (ev):

   -43.8693 -43.8598 -43.8409 -43.8393 -43.8313 -43.8296 -43.7659 -43.7656
   -43.7562 -43.7558  -8.8750  -8.8254  -5.2737  -5.2457  -5.1955  -5.1720
    -5.1636  -5.1585  -5.1292  -5.1235  -5.0457  -5.0146  -0.5103   0.0443
     1.2366   1.5662   1.9515   2.2854   4.1294   4.9555   6.8122   7.2810
     8.1263   8.9677   9.1684   9.2280  10.6738  11.3127  12.0325  12.8589

          k = 0.0708 0.0413 0.0000 (  6497 PWs)   bands (ev):

   -43.8693 -43.8597 -43.8409 -43.8394 -43.8313 -43.8297 -43.7660 -43.7656
   -43.7562 -43.7558  -8.8995  -8.8023  -5.2921  -5.2329  -5.2091  -5.1746
    -5.1542  -5.1456  -5.1324  -5.1259  -5.0549  -4.9903  -0.7225   0.5738
     0.9983   1.2950   1.8204   2.4876   4.1296   5.6190   6.2842   7.3740
     7.6827   8.9755   9.6438   9.8274  10.2383  11.1956  11.5363  12.6486

          k = 0.0708 0.0413 0.0395 (  6505 PWs)   bands (ev):

   -43.8694 -43.8598 -43.8409 -43.8393 -43.8314 -43.8297 -43.7660 -43.7657
   -43.7562 -43.7559  -8.8754  -8.8266  -5.2740  -5.2452  -5.1948  -5.1708
    -5.1636  -5.1574  -5.1304  -5.1247  -5.0459  -5.0149  -0.5161   0.0389
     1.2266   1.5566   1.9670   2.2977   4.1317   4.9700   6.8168   7.2865
     8.1433   8.9780   9.1837   9.2467  10.6417  11.2876  12.0439  12.8706

          k = 0.0708 0.0413-0.0395 (  6504 PWs)   bands (ev):

   -43.8694 -43.8598 -43.8409 -43.8393 -43.8313 -43.8297 -43.7659 -43.7657
   -43.7562 -43.7559  -8.8757  -8.8263  -5.2745  -5.2446  -5.1948  -5.1706
    -5.1636  -5.1576  -5.1300  -5.1251  -5.0465  -5.0144  -0.5188   0.0414
     1.2269   1.5577   1.9675   2.2971   4.1306   4.9686   6.8170   7.2870
     8.1453   8.9819   9.1768   9.2484  10.6397  11.2888  12.0408  12.8682

          k = 0.0711 0.1235 0.0000 (  6501 PWs)   bands (ev):

   -43.8692 -43.8597 -43.8408 -43.8392 -43.8312 -43.8295 -43.7659 -43.7658
   -43.7562 -43.7560  -8.8197  -8.8112  -5.2730  -5.2702  -5.2298  -5.1535
    -5.1503  -5.1472  -5.1359  -5.1291  -4.9701  -4.9683  -0.0090  -0.0015
     1.0117   1.0415   1.0493   1.9496   5.3546   5.3641   5.8283   7.4760
     7.4891   8.0923  10.0937  10.1245  11.0649  11.7045  12.1551  12.2024

          k = 0.0711 0.1236 0.0396 (  6531 PWs)   bands (ev):

   -43.8694 -43.8599 -43.8409 -43.8394 -43.8314 -43.8297 -43.7660 -43.7659
   -43.7563 -43.7561  -8.8191  -8.8112  -5.2671  -5.2652  -5.2106  -5.1708
    -5.1552  -5.1492  -5.1355  -5.1297  -4.9748  -4.9738  -0.1681  -0.1600
     1.2051   1.3921   1.3947   1.6611   4.7593   4.7712   6.4009   7.5242
     7.8908   7.8937  10.4837  10.4964  10.9367  10.9961  12.1864  12.2103

          k = 0.0711 0.1235-0.0395 (  6535 PWs)   bands (ev):

   -43.8695 -43.8599 -43.8410 -43.8394 -43.8314 -43.8297 -43.7660 -43.7659
   -43.7563 -43.7561  -8.8192  -8.8111  -5.2669  -5.2655  -5.2106  -5.1708
    -5.1552  -5.1492  -5.1355  -5.1297  -4.9748  -4.9738  -0.1661  -0.1619
     1.2052   1.3900   1.3968   1.6611   4.7639   4.7665   6.4008   7.5244
     7.8881   7.8963  10.4819  10.4983  10.9360  10.9968  12.1879  12.2087

          k = 0.0705-0.0409 0.0000 (  6499 PWs)   bands (ev):

   -43.8694 -43.8598 -43.8408 -43.8394 -43.8312 -43.8298 -43.7659 -43.7658
   -43.7561 -43.7561  -8.9004  -8.8050  -5.2945  -5.2328  -5.2070  -5.1740
    -5.1557  -5.1456  -5.1308  -5.1241  -5.0564  -4.9899  -0.7302   0.5512
     0.9810   1.2796   1.8545   2.5086   4.1497   5.6438   6.2948   7.3833
     7.7296   8.9726   9.6602   9.8422  10.2046  11.1832  11.5543  12.6681

          k = 0.0706-0.0409 0.0395 (  6499 PWs)   bands (ev):

   -43.8694 -43.8599 -43.8409 -43.8392 -43.8313 -43.8296 -43.7659 -43.7658
   -43.7561 -43.7561  -8.8766  -8.8290  -5.2760  -5.2451  -5.1931  -5.1700
    -5.1629  -5.1581  -5.1284  -5.1234  -5.0482  -5.0151  -0.5265   0.0187
     1.2120   1.5470   1.9985   2.3230   4.1385   4.9728   6.8372   7.3129
     8.1858   8.9999   9.2051   9.2595  10.6091  11.2515  12.0584  12.8941

          k = 0.0705-0.0409-0.0395 (  6495 PWs)   bands (ev):

   -43.8694 -43.8598 -43.8408 -43.8392 -43.8313 -43.8295 -43.7659 -43.7658
   -43.7561 -43.7561  -8.8772  -8.8284  -5.2756  -5.2454  -5.1930  -5.1701
    -5.1629  -5.1580  -5.1288  -5.1230  -5.0477  -5.0156  -0.5315   0.0249
     1.2147   1.5443   1.9991   2.3223   4.1329   4.9761   6.8424   7.3089
     8.1879   8.9973   9.2046   9.2604  10.6056  11.2554  12.0608  12.8918

 ------ SPIN DOWN ----------


          k = 0.0000 0.0000 0.0000 (  6451 PWs)   bands (ev):

   -43.8693 -43.8597 -43.8408 -43.8393 -43.8312 -43.8296 -43.7658 -43.7654
   -43.7561 -43.7556  -9.0069  -8.8375  -5.2526  -5.2043  -5.1990  -5.1634
    -5.1597  -5.1522  -5.1497  -5.1450  -5.1429  -5.0941  -1.2830   1.4298
     2.1540   2.1706   2.2187   2.6292   2.6486   5.1360   8.1271   8.1683
     8.2489   8.6284   9.2547   9.2648  10.4047  11.1364  11.2614  12.2981

          k = 0.0000 0.0000 0.0395 (  6487 PWs)   bands (ev):

   -43.8692 -43.8596 -43.8410 -43.8395 -43.8314 -43.8298 -43.7659 -43.7657
   -43.7561 -43.7559  -8.9657  -8.8807  -5.2231  -5.1951  -5.1910  -5.1745
    -5.1720  -5.1515  -5.1481  -5.1452  -5.1430  -5.1424  -0.8586   0.2393
     2.2709   2.3171   2.5030   2.5324   3.4710   4.7324   7.9475   8.1377
     8.3676   8.3972   8.9046   8.9159  11.1373  11.5835  11.7124  12.1990

          k = 0.0003 0.0822 0.0000 (  6500 PWs)   bands (ev):

   -43.8693 -43.8597 -43.8410 -43.8394 -43.8314 -43.8298 -43.7660 -43.7657
   -43.7563 -43.7559  -8.8998  -8.8012  -5.2903  -5.2341  -5.2103  -5.1760
    -5.1549  -5.1453  -5.1309  -5.1248  -5.0549  -4.9912  -0.7165   0.5828
     1.0029   1.3039   1.8027   2.4773   4.1253   5.5989   6.2922   7.3692
     7.6592   8.9610   9.6224   9.8213  10.2726  11.2028  11.5228  12.6353

          k = 0.0003 0.0822 0.0395 (  6503 PWs)   bands (ev):

   -43.8694 -43.8598 -43.8409 -43.8393 -43.8314 -43.8297 -43.7660 -43.7657
   -43.7563 -43.7559  -8.8756  -8.8256  -5.2735  -5.2458  -5.1955  -5.1718
    -5.1636  -5.1587  -5.1287  -5.1239  -5.0459  -5.0146  -0.5127   0.0481
     1.2371   1.5638   1.9511   2.2848   4.1239   4.9607   6.8168   7.2764
     8.1269   8.9678   9.1660   9.2303  10.6710  11.3148  12.0359  12.8596

          k = 0.0003 0.0822-0.0395 (  6500 PWs)   bands (ev):

   -43.8694 -43.8598 -43.8409 -43.8393 -43.8314 -43.8297 -43.7660 -43.7657
   -43.7562 -43.7559  -8.8753  -8.8258  -5.2737  -5.2457  -5.1955  -5.1720
    -5.1636  -5.1585  -5.1291  -5.1235  -5.0457  -5.0147  -0.5104   0.0442
     1.2363   1.5659   1.9511   2.2849   4.1293   4.9554   6.8122   7.2810
     8.1263   8.9676   9.1684   9.2280  10.6737  11.3127  12.0324  12.8588

          k = 0.0708 0.0413 0.0000 (  6497 PWs)   bands (ev):

   -43.8693 -43.8597 -43.8409 -43.8394 -43.8314 -43.8298 -43.7661 -43.7657
   -43.7563 -43.7559  -8.8999  -8.8027  -5.2921  -5.2329  -5.2091  -5.1746
    -5.1542  -5.1456  -5.1324  -5.1258  -5.0549  -4.9903  -0.7226   0.5737
     0.9980   1.2948   1.8200   2.4872   4.1295   5.6190   6.2843   7.3740
     7.6828   8.9755   9.6438   9.8275  10.2383  11.1955  11.5363  12.6485

          k = 0.0708 0.0413 0.0395 (  6505 PWs)   bands (ev):

   -43.8694 -43.8598 -43.8410 -43.8394 -43.8314 -43.8297 -43.7660 -43.7657
   -43.7563 -43.7560  -8.8758  -8.8270  -5.2740  -5.2451  -5.1948  -5.1708
    -5.1636  -5.1574  -5.1304  -5.1247  -5.0460  -5.0149  -0.5162   0.0388
     1.2263   1.5564   1.9666   2.2973   4.1317   4.9700   6.8168   7.2864
     8.1434   8.9780   9.1837   9.2467  10.6416  11.2875  12.0439  12.8705

          k = 0.0708 0.0413-0.0395 (  6504 PWs)   bands (ev):

   -43.8694 -43.8598 -43.8409 -43.8394 -43.8314 -43.8297 -43.7660 -43.7658
   -43.7563 -43.7560  -8.8761  -8.8267  -5.2745  -5.2446  -5.1948  -5.1706
    -5.1636  -5.1576  -5.1300  -5.1251  -5.0465  -5.0144  -0.5189   0.0414
     1.2266   1.5574   1.9671   2.2966   4.1305   4.9686   6.8170   7.2869
     8.1454   8.9819   9.1768   9.2484  10.6396  11.2888  12.0408  12.8681

          k = 0.0711 0.1235 0.0000 (  6501 PWs)   bands (ev):

   -43.8693 -43.8597 -43.8408 -43.8392 -43.8312 -43.8296 -43.7660 -43.7659
   -43.7562 -43.7561  -8.8201  -8.8116  -5.2730  -5.2702  -5.2298  -5.1535
    -5.1503  -5.1472  -5.1359  -5.1291  -4.9701  -4.9683  -0.0091  -0.0015
     1.0114   1.0413   1.0491   1.9491   5.3544   5.3640   5.8284   7.4760
     7.4892   8.0922  10.0937  10.1245  11.0647  11.7044  12.1552  12.2024

          k = 0.0711 0.1236 0.0396 (  6531 PWs)   bands (ev):

   -43.8695 -43.8599 -43.8410 -43.8394 -43.8314 -43.8298 -43.7661 -43.7659
   -43.7563 -43.7562  -8.8195  -8.8116  -5.2671  -5.2652  -5.2106  -5.1708
    -5.1552  -5.1492  -5.1355  -5.1297  -4.9748  -4.9738  -0.1681  -0.1600
     1.2048   1.3918   1.3945   1.6607   4.7592   4.7712   6.4009   7.5241
     7.8907   7.8937  10.4837  10.4964  10.9365  10.9960  12.1864  12.2103

          k = 0.0711 0.1235-0.0395 (  6535 PWs)   bands (ev):

   -43.8695 -43.8599 -43.8410 -43.8394 -43.8314 -43.8298 -43.7661 -43.7660
   -43.7564 -43.7562  -8.8196  -8.8115  -5.2669  -5.2655  -5.2106  -5.1708
    -5.1552  -5.1492  -5.1355  -5.1297  -4.9748  -4.9738  -0.1662  -0.1620
     1.2048   1.3898   1.3966   1.6607   4.7639   4.7665   6.4008   7.5243
     7.8880   7.8962  10.4819  10.4984  10.9358  10.9967  12.1879  12.2087

          k = 0.0705-0.0409 0.0000 (  6499 PWs)   bands (ev):

   -43.8694 -43.8598 -43.8409 -43.8394 -43.8313 -43.8298 -43.7659 -43.7659
   -43.7562 -43.7561  -8.9008  -8.8054  -5.2945  -5.2328  -5.2070  -5.1740
    -5.1556  -5.1456  -5.1308  -5.1241  -5.0564  -4.9899  -0.7302   0.5511
     0.9807   1.2794   1.8541   2.5081   4.1496   5.6438   6.2948   7.3833
     7.7297   8.9726   9.6602   9.8422  10.2046  11.1831  11.5543  12.6680

          k = 0.0706-0.0409 0.0395 (  6499 PWs)   bands (ev):

   -43.8695 -43.8599 -43.8409 -43.8393 -43.8314 -43.8296 -43.7660 -43.7659
   -43.7562 -43.7562  -8.8770  -8.8294  -5.2760  -5.2451  -5.1931  -5.1700
    -5.1629  -5.1581  -5.1284  -5.1234  -5.0482  -5.0151  -0.5266   0.0186
     1.2117   1.5468   1.9980   2.3225   4.1385   4.9728   6.8372   7.3129
     8.1859   8.9999   9.2051   9.2595  10.6090  11.2515  12.0583  12.8940

          k = 0.0705-0.0409-0.0395 (  6495 PWs)   bands (ev):

   -43.8695 -43.8599 -43.8409 -43.8392 -43.8313 -43.8296 -43.7660 -43.7659
   -43.7562 -43.7561  -8.8776  -8.8288  -5.2756  -5.2454  -5.1930  -5.1701
    -5.1629  -5.1580  -5.1288  -5.1230  -5.0477  -5.0156  -0.5316   0.0249
     1.2144   1.5440   1.9987   2.3218   4.1328   4.9761   6.8424   7.3089
     8.1880   8.9973   9.2046   9.2603  10.6055  11.2554  12.0608  12.8917

     the Fermi energy is     2.6413 ev

!    total energy              =    -717.71034485 Ry
     Harris-Foulkes estimate   =    -717.71034965 Ry
     estimated scf accuracy    <       0.00000632 Ry

     total magnetization       =    -0.00 Bohr mag/cell
     absolute magnetization    =     0.00 Bohr mag/cell

     convergence has been achieved in   1 iterations

     Forces acting on atoms (cartesian axes, Ry/au):

     atom    1 type  1   force =     0.00116073   -0.00130123   -0.05410719
     atom    2 type  1   force =    -0.00152429    0.00145910   -0.05618764
     atom    3 type  2   force =     0.00069573    0.00002538    0.05171502
     atom    4 type  2   force =    -0.00033217   -0.00018325    0.05857980

     Total force =     0.110448     Total SCF correction =     0.011249
     SCF correction compared to forces is large: reduce conv_thr to get better values

     Entering Dynamics:    iteration =     4
                           time      =   0.0040 pico-seconds


     Andersen thermostat:    4 collisions

ATOMIC_POSITIONS (alat)
Cd       0.003473979   2.679421378   8.798055386
Cd       2.337187636   1.367121757   4.577516376
Se      -0.004937073   2.701400077   2.886079659
Se       2.347508973   1.342543963   7.099323479


     kinetic energy (Ekin) =     0.01479936 Ry
     temperature           =   519.25148242 K 
     Ekin + Etot (const)   =  -717.69554549 Ry
     Message from routine dynamics:
     Total linear momentum <> 0

     Linear momentum :   -4.4627217254    6.6027723333   -1.8141716064

     Writing output data file x0.save
     NEW-OLD atomic charge density approx. for the potential

     total cpu time spent up to now is       47.9 secs

     Self-consistent Calculation

     iteration #  1     ecut=    50.00 Ry     beta= 0.45
     Davidson diagonalization with overlap
     ethr =  1.00E-06,  avg # of iterations =  4.0

     total cpu time spent up to now is       51.2 secs

     total energy              =    -717.70940510 Ry
     Harris-Foulkes estimate   =    -717.70945539 Ry
     estimated scf accuracy    <       0.00007987 Ry

     total magnetization       =    -0.00 Bohr mag/cell
     absolute magnetization    =     0.00 Bohr mag/cell

     iteration #  2     ecut=    50.00 Ry     beta= 0.45
     Davidson diagonalization with overlap
     ethr =  1.43E-07,  avg # of iterations =  2.0

     total cpu time spent up to now is       53.1 secs

     total energy              =    -717.70941963 Ry
     Harris-Foulkes estimate   =    -717.70946599 Ry
     estimated scf accuracy    <       0.00014355 Ry

     total magnetization       =    -0.00 Bohr mag/cell
     absolute magnetization    =     0.00 Bohr mag/cell

     iteration #  3     ecut=    50.00 Ry     beta= 0.45
     Davidson diagonalization with overlap
     ethr =  1.43E-07,  avg # of iterations =  1.1

     Magnetic moment per site:
     atom:    1    charge:    2.2842    magn:   -0.0000    constr:    0.0000
     atom:    2    charge:    2.2846    magn:   -0.0000    constr:    0.0000
     atom:    3    charge:    8.0672    magn:   -0.0000    constr:    0.0000
     atom:    4    charge:    8.0698    magn:   -0.0000    constr:    0.0000

     total cpu time spent up to now is       54.8 secs

     End of self-consistent calculation

 ------ SPIN UP ------------


          k = 0.0000 0.0000 0.0000 (  6451 PWs)   bands (ev):

   -43.8660 -43.8606 -43.8374 -43.8356 -43.8316 -43.8302 -43.7618 -43.7614
   -43.7565 -43.7560  -9.0105  -8.8409  -5.2557  -5.2082  -5.2029  -5.1657
    -5.1620  -5.1556  -5.1528  -5.1501  -5.1477  -5.0981  -1.2866   1.4234
     2.1546   2.1730   2.2198   2.6311   2.6504   5.1413   8.1269   8.1704
     8.2484   8.6384   9.2598   9.2654  10.4025  11.1342  11.2606  12.2996

          k = 0.0000 0.0000 0.0395 (  6487 PWs)   bands (ev):

   -43.8658 -43.8604 -43.8377 -43.8357 -43.8320 -43.8305 -43.7619 -43.7617
   -43.7566 -43.7564  -8.9691  -8.8842  -5.2263  -5.1987  -5.1947  -5.1777
    -5.1754  -5.1548  -5.1507  -5.1487  -5.1478  -5.1467  -0.8622   0.2356
     2.2712   2.3186   2.5043   2.5339   3.4719   4.7358   7.9517   8.1451
     8.3682   8.3974   8.9079   8.9162  11.1371  11.5806  11.7117  12.2005

          k = 0.0003 0.0822 0.0000 (  6500 PWs)   bands (ev):

   -43.8660 -43.8605 -43.8376 -43.8357 -43.8319 -43.8304 -43.7620 -43.7617
   -43.7567 -43.7563  -8.9034  -8.8048  -5.2944  -5.2382  -5.2145  -5.1793
    -5.1589  -5.1495  -5.1325  -5.1294  -5.0580  -4.9945  -0.7193   0.5858
     1.0047   1.3024   1.8034   2.4802   4.1250   5.6012   6.2861   7.3703
     7.6546   8.9644   9.6297   9.8216  10.2741  11.2064  11.5230  12.6387

          k = 0.0003 0.0822 0.0395 (  6503 PWs)   bands (ev):

   -43.8661 -43.8607 -43.8376 -43.8356 -43.8319 -43.8304 -43.7620 -43.7617
   -43.7567 -43.7564  -8.8790  -8.8294  -5.2774  -5.2499  -5.1996  -5.1750
    -5.1679  -5.1630  -5.1302  -5.1288  -5.0489  -5.0181  -0.5141   0.0472
     1.2395   1.5641   1.9521   2.2870   4.1230   4.9619   6.8162   7.2745
     8.1232   8.9722   9.1662   9.2323  10.6726  11.3152  12.0381  12.8616

          k = 0.0003 0.0822-0.0395 (  6500 PWs)   bands (ev):

   -43.8661 -43.8606 -43.8376 -43.8356 -43.8319 -43.8304 -43.7620 -43.7617
   -43.7567 -43.7563  -8.8788  -8.8296  -5.2778  -5.2496  -5.1996  -5.1749
    -5.1679  -5.1630  -5.1300  -5.1290  -5.0490  -5.0178  -0.5129   0.0451
     1.2368   1.5675   1.9521   2.2870   4.1288   4.9557   6.8081   7.2842
     8.1227   8.9692   9.1663   9.2339  10.6734  11.3181  12.0338  12.8619

          k = 0.0708 0.0413 0.0000 (  6497 PWs)   bands (ev):

   -43.8660 -43.8606 -43.8376 -43.8357 -43.8319 -43.8304 -43.7621 -43.7617
   -43.7567 -43.7563  -8.9035  -8.8063  -5.2960  -5.2375  -5.2131  -5.1779
    -5.1581  -5.1496  -5.1339  -5.1304  -5.0581  -4.9937  -0.7245   0.5752
     0.9984   1.2929   1.8210   2.4900   4.1320   5.6197   6.2822   7.3742
     7.6786   8.9745   9.6488   9.8270  10.2433  11.1993  11.5346  12.6507

          k = 0.0708 0.0413 0.0395 (  6505 PWs)   bands (ev):

   -43.8661 -43.8607 -43.8376 -43.8356 -43.8319 -43.8304 -43.7620 -43.7618
   -43.7567 -43.7564  -8.8793  -8.8307  -5.2780  -5.2494  -5.1987  -5.1738
    -5.1677  -5.1619  -5.1311  -5.1300  -5.0493  -5.0180  -0.5190   0.0391
     1.2276   1.5577   1.9679   2.2994   4.1306   4.9685   6.8163   7.2905
     8.1403   8.9780   9.1800   9.2527  10.6441  11.2938  12.0455  12.8737

          k = 0.0708 0.0413-0.0395 (  6504 PWs)   bands (ev):

   -43.8661 -43.8607 -43.8376 -43.8357 -43.8319 -43.8304 -43.7620 -43.7618
   -43.7567 -43.7564  -8.8794  -8.8306  -5.2784  -5.2491  -5.1987  -5.1738
    -5.1676  -5.1619  -5.1313  -5.1299  -5.0495  -5.0178  -0.5198   0.0386
     1.2292   1.5582   1.9683   2.2990   4.1301   4.9673   6.8187   7.2870
     8.1418   8.9847   9.1764   9.2498  10.6447  11.2895  12.0425  12.8704

          k = 0.0711 0.1235 0.0000 (  6501 PWs)   bands (ev):

   -43.8660 -43.8605 -43.8375 -43.8355 -43.8317 -43.8303 -43.7620 -43.7619
   -43.7567 -43.7565  -8.8217  -8.8174  -5.2774  -5.2746  -5.2340  -5.1553
    -5.1539  -5.1532  -5.1376  -5.1335  -4.9733  -4.9716  -0.0091  -0.0014
     1.0121   1.0420   1.0496   1.9531   5.3522   5.3675   5.8230   7.4698
     7.4853   8.0901  10.1042  10.1326  11.0660  11.7067  12.1619  12.2081

          k = 0.0711 0.1236 0.0396 (  6531 PWs)   bands (ev):

   -43.8661 -43.8607 -43.8376 -43.8357 -43.8319 -43.8305 -43.7621 -43.7619
   -43.7568 -43.7566  -8.8207  -8.8178  -5.2714  -5.2695  -5.2147  -5.1751
    -5.1560  -5.1558  -5.1368  -5.1345  -4.9781  -4.9769  -0.1673  -0.1612
     1.2064   1.3928   1.3956   1.6635   4.7561   4.7712   6.3967   7.5215
     7.8857   7.8957  10.4917  10.5053  10.9372  10.9968  12.1904  12.2147

          k = 0.0711 0.1235-0.0395 (  6535 PWs)   bands (ev):

   -43.8662 -43.8608 -43.8377 -43.8357 -43.8320 -43.8305 -43.7621 -43.7619
   -43.7568 -43.7566  -8.8207  -8.8177  -5.2710  -5.2699  -5.2147  -5.1751
    -5.1560  -5.1559  -5.1368  -5.1345  -4.9780  -4.9770  -0.1666  -0.1620
     1.2064   1.3909   1.3977   1.6635   4.7582   4.7691   6.3966   7.5216
     7.8842   7.8970  10.4920  10.5052  10.9367  10.9976  12.1909  12.2141

          k = 0.0705-0.0409 0.0000 (  6499 PWs)   bands (ev):

   -43.8661 -43.8607 -43.8375 -43.8357 -43.8318 -43.8305 -43.7620 -43.7619
   -43.7566 -43.7566  -8.9044  -8.8091  -5.2987  -5.2370  -5.2112  -5.1772
    -5.1596  -5.1499  -5.1324  -5.1286  -5.0594  -4.9932  -0.7322   0.5523
     0.9811   1.2774   1.8554   2.5111   4.1516   5.6454   6.2915   7.3842
     7.7254   8.9734   9.6674   9.8412  10.2073  11.1867  11.5530  12.6707

          k = 0.0706-0.0409 0.0395 (  6499 PWs)   bands (ev):

   -43.8662 -43.8607 -43.8376 -43.8355 -43.8319 -43.8303 -43.7620 -43.7619
   -43.7566 -43.7566  -8.8805  -8.8331  -5.2798  -5.2494  -5.1971  -5.1732
    -5.1671  -5.1624  -5.1298  -5.1282  -5.0510  -5.0186  -0.5298   0.0191
     1.2146   1.5458   1.9998   2.3248   4.1349   4.9751   6.8410   7.3104
     8.1832   9.0039   9.2027   9.2630  10.6101  11.2527  12.0617  12.8957

          k = 0.0705-0.0409-0.0395 (  6495 PWs)   bands (ev):

   -43.8661 -43.8607 -43.8376 -43.8355 -43.8318 -43.8303 -43.7620 -43.7619
   -43.7566 -43.7566  -8.8808  -8.8328  -5.2800  -5.2492  -5.1970  -5.1731
    -5.1672  -5.1624  -5.1297  -5.1283  -5.0510  -5.0186  -0.5322   0.0222
     1.2139   1.5464   2.0002   2.3244   4.1355   4.9729   6.8382   7.3154
     8.1839   8.9982   9.2039   9.2652  10.6078  11.2586  12.0607  12.8953

 ------ SPIN DOWN ----------


          k = 0.0000 0.0000 0.0000 (  6451 PWs)   bands (ev):

   -43.8660 -43.8606 -43.8375 -43.8356 -43.8317 -43.8302 -43.7619 -43.7614
   -43.7565 -43.7560  -9.0107  -8.8410  -5.2557  -5.2082  -5.2029  -5.1657
    -5.1620  -5.1556  -5.1528  -5.1501  -5.1477  -5.0981  -1.2866   1.4234
     2.1546   2.1730   2.2196   2.6309   2.6502   5.1413   8.1269   8.1704
     8.2484   8.6384   9.2598   9.2654  10.4025  11.1342  11.2606  12.2996

          k = 0.0000 0.0000 0.0395 (  6487 PWs)   bands (ev):

   -43.8659 -43.8604 -43.8377 -43.8358 -43.8320 -43.8305 -43.7619 -43.7617
   -43.7566 -43.7564  -8.9692  -8.8843  -5.2263  -5.1987  -5.1947  -5.1777
    -5.1754  -5.1548  -5.1507  -5.1487  -5.1478  -5.1467  -0.8622   0.2356
     2.2711   2.3184   2.5042   2.5338   3.4719   4.7358   7.9517   8.1452
     8.3682   8.3974   8.9079   8.9162  11.1371  11.5806  11.7117  12.2005

          k = 0.0003 0.0822 0.0000 (  6500 PWs)   bands (ev):

   -43.8660 -43.8606 -43.8376 -43.8357 -43.8319 -43.8305 -43.7621 -43.7617
   -43.7567 -43.7564  -8.9036  -8.8049  -5.2944  -5.2382  -5.2145  -5.1793
    -5.1589  -5.1495  -5.1325  -5.1294  -5.0580  -4.9945  -0.7193   0.5857
     1.0046   1.3023   1.8032   2.4800   4.1249   5.6012   6.2862   7.3703
     7.6546   8.9644   9.6297   9.8216  10.2741  11.2064  11.5230  12.6386

          k = 0.0003 0.0822 0.0395 (  6503 PWs)   bands (ev):

   -43.8661 -43.8607 -43.8376 -43.8356 -43.8319 -43.8304 -43.7621 -43.7617
   -43.7567 -43.7564  -8.8791  -8.8296  -5.2774  -5.2499  -5.1996  -5.1750
    -5.1679  -5.1630  -5.1302  -5.1288  -5.0489  -5.0181  -0.5141   0.0472
     1.2394   1.5640   1.9520   2.2868   4.1230   4.9619   6.8162   7.2745
     8.1232   8.9722   9.1662   9.2323  10.6726  11.3152  12.0381  12.8615

          k = 0.0003 0.0822-0.0395 (  6500 PWs)   bands (ev):

   -43.8661 -43.8607 -43.8376 -43.8356 -43.8319 -43.8304 -43.7620 -43.7617
[...]
     Harris-Foulkes estimate   =    -717.71301544 Ry
     estimated scf accuracy    <       0.00000321 Ry

     total magnetization       =     0.00 Bohr mag/cell
     absolute magnetization    =     0.00 Bohr mag/cell

     convergence has been achieved in   1 iterations

     Forces acting on atoms (cartesian axes, Ry/au):

     atom    1 type  1   force =     0.00272747   -0.00001146   -0.05875970
     atom    2 type  1   force =    -0.00280806   -0.00056575   -0.04443142
     atom    3 type  2   force =    -0.00039515   -0.00025638    0.05249164
     atom    4 type  2   force =     0.00047573    0.00083359    0.05069948

     Total force =     0.103776     Total SCF correction =     0.011071
     SCF correction compared to forces is large: reduce conv_thr to get better values

     Entering Dynamics:    iteration =    49
                           time      =   0.0490 pico-seconds


     Andersen thermostat:    4 collisions

ATOMIC_POSITIONS (alat)
Cd       0.014958872   2.681734051   8.803600360
Cd       2.335791700   1.353914272   4.556796345
Se      -0.016341954   2.719001907   2.893576102
Se       2.343400803   1.341694286   7.115160609


     kinetic energy (Ekin) =     0.00370058 Ry
     temperature           =   129.83881569 K 
     Ekin + Etot (const)   =  -717.70931285 Ry
     Message from routine dynamics:
     Total linear momentum <> 0

     Linear momentum :   -0.2460345290    1.7000026517   14.7441399537

     Writing output data file x0.save
     NEW-OLD atomic charge density approx. for the potential

     total cpu time spent up to now is      418.7 secs

     Self-consistent Calculation

     iteration #  1     ecut=    50.00 Ry     beta= 0.45
     Davidson diagonalization with overlap
     ethr =  1.00E-06,  avg # of iterations =  3.0

     Threshold (ethr) on eigenvalues was too large:
     Diagonalizing with lowered threshold

     Davidson diagonalization with overlap
     ethr =  2.60E-08,  avg # of iterations =  1.9

     total cpu time spent up to now is      423.1 secs

     total energy              =    -717.71309553 Ry
     Harris-Foulkes estimate   =    -717.71310474 Ry
     estimated scf accuracy    <       0.00001469 Ry

     total magnetization       =    -0.00 Bohr mag/cell
     absolute magnetization    =     0.00 Bohr mag/cell

     iteration #  2     ecut=    50.00 Ry     beta= 0.45
     Davidson diagonalization with overlap
     ethr =  2.62E-08,  avg # of iterations =  2.0

     total cpu time spent up to now is      425.0 secs

     total energy              =    -717.71309832 Ry
     Harris-Foulkes estimate   =    -717.71310649 Ry
     estimated scf accuracy    <       0.00002498 Ry

     total magnetization       =    -0.00 Bohr mag/cell
     absolute magnetization    =     0.00 Bohr mag/cell

     iteration #  3     ecut=    50.00 Ry     beta= 0.45
     Davidson diagonalization with overlap
     ethr =  2.62E-08,  avg # of iterations =  1.1

     Magnetic moment per site:
     atom:    1    charge:    2.2832    magn:   -0.0000    constr:    0.0000
     atom:    2    charge:    2.2817    magn:   -0.0000    constr:    0.0000
     atom:    3    charge:    8.0590    magn:    0.0000    constr:    0.0000
     atom:    4    charge:    8.0666    magn:    0.0000    constr:    0.0000

     total cpu time spent up to now is      426.8 secs

     End of self-consistent calculation

 ------ SPIN UP ------------


          k = 0.0000 0.0000 0.0000 (  6451 PWs)   bands (ev):

   -43.8846 -43.8563 -43.8551 -43.8490 -43.8220 -43.8197 -43.7828 -43.7824
   -43.7481 -43.7476  -9.0021  -8.8164  -5.2425  -5.1919  -5.1876  -5.1544
    -5.1502  -5.1423  -5.1400  -5.1304  -5.1288  -5.0807  -1.2698   1.4539
     2.1469   2.1727   2.2093   2.6255   2.6463   5.1186   8.1219   8.1671
     8.2464   8.5978   9.2226   9.2779  10.4124  11.1493  11.2603  12.2927

          k = 0.0000 0.0000 0.0395 (  6487 PWs)   bands (ev):

   -43.8844 -43.8565 -43.8554 -43.8489 -43.8223 -43.8199 -43.7829 -43.7827
   -43.7482 -43.7480  -8.9680  -8.8524  -5.2130  -5.1834  -5.1802  -5.1641
    -5.1608  -5.1398  -5.1378  -5.1331  -5.1305  -5.1292  -0.8457   0.2537
     2.2713   2.3067   2.5031   2.5320   3.4689   4.7219   7.9277   8.1167
     8.3660   8.3953   8.8834   8.9273  11.1381  11.5992  11.7097  12.1932

          k = 0.0003 0.0822 0.0000 (  6500 PWs)   bands (ev):

   -43.8845 -43.8565 -43.8554 -43.8490 -43.8222 -43.8199 -43.7830 -43.7827
   -43.7483 -43.7480  -8.8993  -8.7745  -5.2785  -5.2206  -5.1962  -5.1639
    -5.1434  -5.1321  -5.1196  -5.1160  -5.0448  -4.9790  -0.7054   0.5608
     0.9955   1.3083   1.8066   2.4718   4.1347   5.5964   6.3173   7.3680
     7.6773   8.9502   9.6111   9.8128  10.2567  11.1820  11.5249  12.6239

          k = 0.0003 0.0822 0.0395 (  6503 PWs)   bands (ev):

   -43.8846 -43.8564 -43.8553 -43.8491 -43.8222 -43.8198 -43.7830 -43.7828
   -43.7483 -43.7480  -8.8830  -8.7909  -5.2626  -5.2318  -5.1824  -5.1603
    -5.1494  -5.1460  -5.1177  -5.1149  -5.0363  -5.0022  -0.4957   0.0280
     1.2264   1.5632   1.9509   2.2851   4.1444   4.9516   6.8261   7.2786
     8.1339   8.9565   9.1811   9.2316  10.6677  11.2791  12.0211  12.8526

          k = 0.0003 0.0822-0.0395 (  6500 PWs)   bands (ev):

   -43.8846 -43.8564 -43.8553 -43.8491 -43.8222 -43.8198 -43.7830 -43.7827
   -43.7483 -43.7480  -8.8840  -8.7899  -5.2618  -5.2322  -5.1823  -5.1602
    -5.1495  -5.1460  -5.1170  -5.1156  -5.0354  -5.0036  -0.5149   0.0545
     1.2289   1.5577   1.9528   2.2827   4.1217   4.9650   6.8320   7.2877
     8.1415   8.9641   9.1552   9.2258  10.6514  11.3051  12.0366  12.8455

          k = 0.0708 0.0413 0.0000 (  6497 PWs)   bands (ev):

   -43.8846 -43.8565 -43.8553 -43.8490 -43.8222 -43.8199 -43.7831 -43.7827
   -43.7484 -43.7480  -8.9007  -8.7749  -5.2783  -5.2189  -5.1970  -5.1629
    -5.1427  -5.1329  -5.1211  -5.1174  -5.0452  -4.9798  -0.7149   0.5724
     1.0033   1.3066   1.8124   2.4781   4.1190   5.6100   6.2959   7.3685
     7.6975   8.9675   9.6089   9.8366  10.2403  11.1912  11.5385  12.6394

          k = 0.0708 0.0413 0.0395 (  6505 PWs)   bands (ev):

   -43.8847 -43.8565 -43.8554 -43.8491 -43.8222 -43.8198 -43.7831 -43.7828
   -43.7484 -43.7480  -8.8848  -8.7910  -5.2611  -5.2312  -5.1831  -5.1591
    -5.1502  -5.1453  -5.1185  -5.1170  -5.0360  -5.0044  -0.5125   0.0516
     1.2259   1.5600   1.9576   2.2902   4.1262   4.9723   6.8121   7.2859
     8.1579   8.9685   9.1774   9.2265  10.6401  11.3003  12.0427  12.8598

          k = 0.0708 0.0413-0.0395 (  6504 PWs)   bands (ev):

   -43.8847 -43.8565 -43.8553 -43.8491 -43.8222 -43.8198 -43.7830 -43.7828
   -43.7483 -43.7480  -8.8845  -8.7913  -5.2619  -5.2304  -5.1831  -5.1591
    -5.1504  -5.1454  -5.1192  -5.1162  -5.0368  -5.0033  -0.5070   0.0421
     1.2280   1.5609   1.9575   2.2905   4.1346   4.9667   6.8182   7.2680
     8.1559   8.9579   9.2004   9.2323  10.6463  11.2847  12.0306  12.8591

          k = 0.0711 0.1235 0.0000 (  6501 PWs)   bands (ev):

   -43.8845 -43.8563 -43.8552 -43.8490 -43.8221 -43.8197 -43.7830 -43.7829
   -43.7483 -43.7482  -8.8421  -8.7620  -5.2624  -5.2522  -5.2165  -5.1422
    -5.1372  -5.1354  -5.1246  -5.1207  -4.9638  -4.9537  -0.0201   0.0084
     1.0091   1.0343   1.0571   1.9377   5.3409   5.3743   5.8482   7.4888
     7.5120   8.1001  10.0289  10.1258  11.0606  11.6960  12.1246  12.1920

          k = 0.0711 0.1236 0.0396 (  6531 PWs)   bands (ev):

   -43.8847 -43.8565 -43.8554 -43.8492 -43.8223 -43.8199 -43.7831 -43.7830
   -43.7484 -43.7482  -8.8418  -8.7617  -5.2579  -5.2466  -5.1979  -5.1568
    -5.1442  -5.1364  -5.1242  -5.1217  -4.9688  -4.9587  -0.1747  -0.1524
     1.1978   1.3815   1.4026   1.6541   4.7501   4.7922   6.4154   7.5340
     7.8837   7.9124  10.4238  10.4986  10.9293  10.9985  12.1617  12.2079

          k = 0.0711 0.1235-0.0395 (  6535 PWs)   bands (ev):

   -43.8848 -43.8565 -43.8554 -43.8492 -43.8223 -43.8199 -43.7831 -43.7830
   -43.7484 -43.7482  -8.8418  -8.7617  -5.2578  -5.2467  -5.1979  -5.1569
    -5.1441  -5.1364  -5.1242  -5.1217  -4.9688  -4.9588  -0.1819  -0.1451
     1.1988   1.3826   1.4003   1.6543   4.7433   4.7988   6.4154   7.5340
     7.8851   7.9115  10.4239  10.4985  10.9290  10.9987  12.1653  12.2040

          k = 0.0705-0.0409 0.0000 (  6499 PWs)   bands (ev):

   -43.8846 -43.8565 -43.8553 -43.8491 -43.8221 -43.8200 -43.7830 -43.7829
   -43.7483 -43.7482  -8.9015  -8.7778  -5.2817  -5.2181  -5.1945  -5.1621
    -5.1447  -5.1328  -5.1194  -5.1155  -5.0466  -4.9788  -0.7245   0.5494
     0.9835   1.2900   1.8485   2.5006   4.1375   5.6424   6.2994   7.3829
     7.7433   8.9752   9.6405   9.8497  10.1898  11.1734  11.5617  12.6602

          k = 0.0706-0.0409 0.0395 (  6499 PWs)   bands (ev):

   -43.8847 -43.8564 -43.8553 -43.8492 -43.8222 -43.8197 -43.7830 -43.7829
   -43.7483 -43.7482  -8.8868  -8.7926  -5.2625  -5.2312  -5.1809  -5.1585
    -5.1498  -5.1462  -5.1171  -5.1145  -5.0377  -5.0054  -0.5340   0.0448
     1.2180   1.5339   1.9914   2.3166   4.1202   4.9971   6.8578   7.2743
     8.2035   8.9841   9.2048   9.2682  10.5865  11.2494  12.0614  12.8824

          k = 0.0705-0.0409-0.0395 (  6495 PWs)   bands (ev):

   -43.8847 -43.8563 -43.8552 -43.8492 -43.8222 -43.8197 -43.7830 -43.7829
   -43.7483 -43.7482  -8.8855  -8.7939  -5.2639  -5.2305  -5.1813  -5.1584
    -5.1493  -5.1461  -5.1164  -5.1154  -5.0386  -5.0037  -0.5114   0.0138
     1.2006   1.5563   1.9891   2.3193   4.1545   4.9673   6.8115   7.3281
     8.1941   8.9964   9.2148   9.2371  10.6046  11.2422  12.0480  12.8832

 ------ SPIN DOWN ----------


          k = 0.0000 0.0000 0.0000 (  6451 PWs)   bands (ev):

   -43.8846 -43.8563 -43.8551 -43.8490 -43.8220 -43.8197 -43.7828 -43.7824
   -43.7481 -43.7476  -9.0021  -8.8164  -5.2425  -5.1919  -5.1876  -5.1544
    -5.1502  -5.1423  -5.1400  -5.1304  -5.1288  -5.0807  -1.2698   1.4539
     2.1469   2.1727   2.2093   2.6255   2.6463   5.1186   8.1219   8.1671
     8.2464   8.5978   9.2226   9.2779  10.4124  11.1493  11.2603  12.2927

          k = 0.0000 0.0000 0.0395 (  6487 PWs)   bands (ev):

   -43.8844 -43.8565 -43.8554 -43.8489 -43.8223 -43.8199 -43.7829 -43.7827
   -43.7482 -43.7480  -8.9680  -8.8524  -5.2130  -5.1834  -5.1802  -5.1641
    -5.1608  -5.1398  -5.1378  -5.1331  -5.1305  -5.1292  -0.8457   0.2537
     2.2713   2.3067   2.5031   2.5320   3.4689   4.7219   7.9277   8.1167
     8.3660   8.3953   8.8834   8.9273  11.1381  11.5992  11.7097  12.1932

          k = 0.0003 0.0822 0.0000 (  6500 PWs)   bands (ev):

   -43.8845 -43.8565 -43.8554 -43.8490 -43.8222 -43.8199 -43.7830 -43.7827
   -43.7483 -43.7480  -8.8993  -8.7745  -5.2785  -5.2206  -5.1962  -5.1639
    -5.1434  -5.1321  -5.1196  -5.1160  -5.0448  -4.9790  -0.7054   0.5608
     0.9955   1.3083   1.8066   2.4718   4.1347   5.5964   6.3173   7.3680
     7.6773   8.9502   9.6111   9.8128  10.2567  11.1820  11.5249  12.6239

          k = 0.0003 0.0822 0.0395 (  6503 PWs)   bands (ev):

   -43.8846 -43.8564 -43.8553 -43.8491 -43.8222 -43.8198 -43.7830 -43.7828
   -43.7483 -43.7480  -8.8830  -8.7909  -5.2626  -5.2318  -5.1824  -5.1603
    -5.1494  -5.1460  -5.1177  -5.1149  -5.0363  -5.0022  -0.4957   0.0280
     1.2264   1.5632   1.9509   2.2851   4.1444   4.9516   6.8261   7.2786
     8.1339   8.9565   9.1811   9.2316  10.6677  11.2791  12.0211  12.8526

          k = 0.0003 0.0822-0.0395 (  6500 PWs)   bands (ev):

   -43.8846 -43.8564 -43.8553 -43.8491 -43.8222 -43.8198 -43.7830 -43.7827
   -43.7483 -43.7480  -8.8840  -8.7899  -5.2618  -5.2322  -5.1823  -5.1602
    -5.1495  -5.1460  -5.1170  -5.1156  -5.0354  -5.0036  -0.5149   0.0545
     1.2289   1.5577   1.9528   2.2827   4.1217   4.9650   6.8320   7.2877
     8.1415   8.9641   9.1552   9.2258  10.6514  11.3051  12.0366  12.8455

          k = 0.0708 0.0413 0.0000 (  6497 PWs)   bands (ev):

   -43.8846 -43.8565 -43.8553 -43.8490 -43.8222 -43.8199 -43.7831 -43.7827
   -43.7484 -43.7480  -8.9007  -8.7749  -5.2783  -5.2189  -5.1970  -5.1629
    -5.1427  -5.1329  -5.1211  -5.1174  -5.0452  -4.9798  -0.7149   0.5724
     1.0033   1.3066   1.8124   2.4781   4.1190   5.6100   6.2959   7.3685
     7.6975   8.9675   9.6089   9.8366  10.2403  11.1912  11.5385  12.6394

          k = 0.0708 0.0413 0.0395 (  6505 PWs)   bands (ev):

   -43.8847 -43.8565 -43.8554 -43.8491 -43.8222 -43.8198 -43.7831 -43.7828
   -43.7484 -43.7480  -8.8848  -8.7910  -5.2611  -5.2312  -5.1831  -5.1591
    -5.1502  -5.1453  -5.1185  -5.1170  -5.0360  -5.0044  -0.5125   0.0516
     1.2259   1.5600   1.9576   2.2902   4.1262   4.9723   6.8121   7.2859
     8.1579   8.9685   9.1774   9.2265  10.6401  11.3003  12.0427  12.8598

          k = 0.0708 0.0413-0.0395 (  6504 PWs)   bands (ev):

   -43.8847 -43.8565 -43.8553 -43.8491 -43.8222 -43.8198 -43.7830 -43.7828
   -43.7483 -43.7480  -8.8845  -8.7913  -5.2619  -5.2304  -5.1831  -5.1591
    -5.1504  -5.1454  -5.1192  -5.1162  -5.0368  -5.0033  -0.5070   0.0421
     1.2280   1.5609   1.9575   2.2905   4.1346   4.9667   6.8182   7.2680
     8.1559   8.9579   9.2004   9.2323  10.6463  11.2847  12.0306  12.8591

          k = 0.0711 0.1235 0.0000 (  6501 PWs)   bands (ev):

   -43.8845 -43.8563 -43.8552 -43.8490 -43.8221 -43.8197 -43.7830 -43.7829
   -43.7483 -43.7482  -8.8421  -8.7620  -5.2624  -5.2522  -5.2165  -5.1422
    -5.1372  -5.1354  -5.1246  -5.1207  -4.9638  -4.9537  -0.0201   0.0084
     1.0091   1.0343   1.0571   1.9377   5.3409   5.3743   5.8482   7.4888
     7.5120   8.1001  10.0289  10.1258  11.0606  11.6960  12.1246  12.1920

          k = 0.0711 0.1236 0.0396 (  6531 PWs)   bands (ev):

   -43.8847 -43.8565 -43.8554 -43.8492 -43.8223 -43.8199 -43.7831 -43.7830
   -43.7484 -43.7482  -8.8418  -8.7617  -5.2579  -5.2466  -5.1979  -5.1568
    -5.1442  -5.1364  -5.1242  -5.1217  -4.9688  -4.9587  -0.1747  -0.1524
     1.1978   1.3815   1.4026   1.6541   4.7501   4.7922   6.4154   7.5340
     7.8837   7.9124  10.4238  10.4986  10.9293  10.9985  12.1617  12.2079

          k = 0.0711 0.1235-0.0395 (  6535 PWs)   bands (ev):

   -43.8848 -43.8565 -43.8554 -43.8492 -43.8223 -43.8199 -43.7831 -43.7830
   -43.7484 -43.7482  -8.8418  -8.7617  -5.2578  -5.2467  -5.1979  -5.1569
    -5.1441  -5.1364  -5.1242  -5.1217  -4.9688  -4.9588  -0.1819  -0.1451
     1.1988   1.3826   1.4003   1.6543   4.7433   4.7988   6.4154   7.5340
     7.8851   7.9115  10.4239  10.4985  10.9290  10.9987  12.1653  12.2040

          k = 0.0705-0.0409 0.0000 (  6499 PWs)   bands (ev):

   -43.8846 -43.8565 -43.8553 -43.8491 -43.8221 -43.8200 -43.7830 -43.7829
   -43.7483 -43.7482  -8.9015  -8.7778  -5.2817  -5.2181  -5.1945  -5.1621
    -5.1447  -5.1328  -5.1194  -5.1155  -5.0466  -4.9788  -0.7245   0.5494
     0.9835   1.2900   1.8485   2.5006   4.1375   5.6424   6.2994   7.3829
     7.7433   8.9752   9.6405   9.8497  10.1898  11.1734  11.5617  12.6602

          k = 0.0706-0.0409 0.0395 (  6499 PWs)   bands (ev):

   -43.8847 -43.8564 -43.8553 -43.8492 -43.8222 -43.8197 -43.7830 -43.7829
   -43.7483 -43.7482  -8.8868  -8.7926  -5.2625  -5.2312  -5.1809  -5.1585
    -5.1498  -5.1462  -5.1171  -5.1145  -5.0377  -5.0054  -0.5340   0.0448
     1.2180   1.5339   1.9914   2.3166   4.1202   4.9971   6.8578   7.2743
     8.2035   8.9841   9.2048   9.2682  10.5865  11.2494  12.0614  12.8824

          k = 0.0705-0.0409-0.0395 (  6495 PWs)   bands (ev):

   -43.8847 -43.8563 -43.8552 -43.8492 -43.8222 -43.8197 -43.7830 -43.7829
   -43.7483 -43.7482  -8.8855  -8.7939  -5.2639  -5.2305  -5.1813  -5.1584
    -5.1493  -5.1461  -5.1164  -5.1154  -5.0386  -5.0037  -0.5114   0.0138
     1.2006   1.5563   1.9891   2.3193   4.1545   4.9673   6.8115   7.3281
     8.1941   8.9964   9.2148   9.2371  10.6046  11.2422  12.0480  12.8832

     the Fermi energy is     2.6382 ev

!    total energy              =    -717.71310203 Ry
     Harris-Foulkes estimate   =    -717.71310212 Ry
     estimated scf accuracy    <       0.00000018 Ry

     total magnetization       =    -0.00 Bohr mag/cell
     absolute magnetization    =     0.00 Bohr mag/cell

     convergence has been achieved in   3 iterations

     Forces acting on atoms (cartesian axes, Ry/au):

     atom    1 type  1   force =     0.00096680   -0.00051807   -0.06055084
     atom    2 type  1   force =    -0.00091356    0.00026722   -0.04180988
     atom    3 type  2   force =     0.00028565   -0.00007993    0.05383671
     atom    4 type  2   force =    -0.00033889    0.00033078    0.04852401

     Total force =     0.103295     Total SCF correction =     0.002589

     Entering Dynamics:    iteration =    50
                           time      =   0.0500 pico-seconds


     Andersen thermostat:    4 collisions

ATOMIC_POSITIONS (alat)
Cd       0.015334380   2.680594622   8.802369046
Cd       2.334178943   1.355132585   4.559037516
Se      -0.016882252   2.719754715   2.895567851
Se       2.345843530   1.340820183   7.111616077


     kinetic energy (Ekin) =     0.01307727 Ry
     temperature           =   458.83005855 K 
     Ekin + Etot (const)   =  -717.70002475 Ry
     Message from routine dynamics:
     Total linear momentum <> 0

     Linear momentum :   -4.2341372308    3.1088639395   -2.0922158218

     The maximum number of steps has been reached.

     End of molecular dynamics calculation

     diffusion coefficients :
     atom     1   D =       0.00000005 cm^2/s
     atom     2   D =       0.00000014 cm^2/s
     atom     3   D =       0.00000014 cm^2/s
     atom     4   D =       0.00000003 cm^2/s

     < D > =       0.00000009 cm^2/s

     Writing output data file x0.save

     init_run     :      1.54s CPU      1.58s WALL (       1 calls)
     electrons    :    321.14s CPU    335.82s WALL (      50 calls)
     update_pot   :     39.23s CPU     39.65s WALL (      49 calls)
     forces       :     40.92s CPU     41.15s WALL (      50 calls)

     Called by init_run:
     wfcinit      :      0.55s CPU      0.56s WALL (       1 calls)
     potinit      :      0.27s CPU      0.28s WALL (       1 calls)

     Called by electrons:
     c_bands      :    263.41s CPU    273.76s WALL (     150 calls)
     sum_band     :     48.71s CPU     50.02s WALL (     150 calls)
     v_of_rho     :      5.32s CPU      5.44s WALL (     160 calls)
     newd         :      7.25s CPU      7.29s WALL (     160 calls)
     mix_rho      :      0.10s CPU      0.11s WALL (     150 calls)

     Called by c_bands:
     init_us_2    :      4.00s CPU      4.07s WALL (    9828 calls)
     cegterg      :    254.20s CPU    264.43s WALL (    4200 calls)

     Called by sum_band:
     sum_band:bec :      0.12s CPU      0.12s WALL (    4200 calls)
     addusdens    :     13.21s CPU     13.25s WALL (     150 calls)

     Called by *egterg:
     h_psi        :    171.46s CPU    177.95s WALL (   14176 calls)
     s_psi        :      4.40s CPU      4.48s WALL (   14176 calls)
     g_psi        :      1.40s CPU      1.42s WALL (    9948 calls)
     cdiaghg      :     42.32s CPU     42.53s WALL (   11656 calls)

     Called by h_psi:
     h_psi:pot    :    170.16s CPU    176.62s WALL (   14176 calls)
     h_psi:calbec :      6.81s CPU      7.04s WALL (   14176 calls)
     vloc_psi     :    158.74s CPU    164.91s WALL (   14176 calls)
     add_vuspsi   :      4.52s CPU      4.60s WALL (   14176 calls)

     General routines
     calbec       :     12.14s CPU     12.46s WALL (   23976 calls)
     fft          :      3.36s CPU      3.55s WALL (    4990 calls)
     fftw         :    171.89s CPU    178.62s WALL ( 1031226 calls)

     Parallel routines
     fft_scatt_xy :     17.10s CPU     17.85s WALL ( 1036216 calls)
     fft_scatt_yz :     49.68s CPU     51.72s WALL ( 1036216 calls)

     PWSCF        :  6m47.34s CPU     7m 9.76s WALL


   This run was terminated on:  14:53:55  12Jul2022            

=------------------------------------------------------------------------------=
   JOB DONE.
=------------------------------------------------------------------------------=
