
     Program PWSCF v.6.2 (svn rev. 14038) starts on 12Jul2022 at 15: 6: 2 

     This program is part of the open-source Quantum ESPRESSO suite
     for quantum simulation of materials; please cite
         "P. Giannozzi et al., J. Phys.:Condens. Matter 21 395502 (2009);
         "P. Giannozzi et al., J. Phys.:Condens. Matter 29 465901 (2017);
          URL http://www.quantum-espresso.org", 
     in publications or presentations arising from this work. More details at
     http://www.quantum-espresso.org/quote

     Parallel version (MPI), running on     4 processors

     MPI processes distributed on     1 nodes
     R & G space division:  proc/nbgrp/npool/nimage =       4
     Waiting for input...
     Reading input from standard input
Warning: card &IONS ignored
Warning: card   ION_DYNAMICS = 'VERLET', ignored
Warning: card   ION_TEMPERATURE = 'ANDERSEN', ignored
Warning: card   TEMPW = 300.00 , ignored
Warning: card   NRAISE = 1, ignored
Warning: card / ignored

     Current dimensions of program PWSCF are:
     Max number of different atomic species (ntypx) = 10
     Max number of k-points (npk) =  40000
     Max angular momentum in pseudopotentials (lmaxx) =  3
               file Cd.pbe-n-rrkjus_psl.1.0.0.UPF: wavefunction(s)  4D renormalized

     Subspace diagonalization in iterative solution of the eigenvalue problem:
     a serial algorithm will be used


     Parallelization info
     --------------------
     sticks:   dense  smooth     PW     G-vecs:    dense   smooth      PW
     Min         215     215     52                 9295     9295    1151
     Max         216     216     53                 9298     9298    1158
     Sum         863     863    211                37187    37187    4621



     bravais-lattice index     =            0
     lattice parameter (alat)  =       1.8900  a.u.
     unit-cell volume          =    1089.4295 (a.u.)^3
     number of atoms/cell      =            4
     number of atomic types    =            2
     number of electrons       =        56.00
     number of Kohn-Sham states=           40
     kinetic-energy cutoff     =      40.0000  Ry
     charge density cutoff     =     160.0000  Ry
     convergence threshold     =      1.0E-05
     mixing beta               =       0.4500
     number of iterations used =            8  plain     mixing
     Exchange-correlation      = PBE ( 1  4  3  4 0 0)

     celldm(1)=   1.890000  celldm(2)=   0.000000  celldm(3)=   0.000000
     celldm(4)=   0.000000  celldm(5)=   0.000000  celldm(6)=   0.000000

     crystal axes: (cart. coord. in units of alat)
               a(1) = (   4.716987  -0.015513  -0.002401 )  
               a(2) = (  -2.371927   4.062830  -0.000274 )  
               a(3) = (  -0.002553  -0.001388   8.436361 )  

     reciprocal axes: (cart. coord. in units 2 pi/alat)
               b(1) = (  0.212408  0.124006  0.000085 )  
               b(2) = (  0.000811  0.246607  0.000041 )  
               b(3) = (  0.000060  0.000043  0.118535 )  


     PseudoPot. # 1 for Cd read from file:
     /projects/academic/cyberwksp21/Students/jstetzler/QE_examples/Tutorials_QE_and_eQE/6_nac_workflow/step2b/PP/Cd.pbe-n-rrkjus_psl.1.0.0.UPF
     MD5 check sum: a744746c89d2344a134ead0d8ab94e7a
     Pseudo is Ultrasoft + core correction, Zval = 12.0
     Generated using "atomic" code by A. Dal Corso v.6.3
     Using radial grid of 1239 points,  6 beta functions with: 
                l(1) =   0
                l(2) =   0
                l(3) =   1
                l(4) =   1
                l(5) =   2
                l(6) =   2
     Q(r) pseudized with 0 coefficients 


     PseudoPot. # 2 for Se read from file:
     /projects/academic/cyberwksp21/Students/jstetzler/QE_examples/Tutorials_QE_and_eQE/6_nac_workflow/step2b/PP/Se.pbe-dn-rrkjus_psl.1.0.0.UPF
     MD5 check sum: 497c2ee764913186385bad8d0f9c7a86
     Pseudo is Ultrasoft + core correction, Zval = 16.0
     Generated using "atomic" code by A. Dal Corso v.6.3
     Using radial grid of 1211 points,  6 beta functions with: 
                l(1) =   0
                l(2) =   0
                l(3) =   1
                l(4) =   1
                l(5) =   2
                l(6) =   2
     Q(r) pseudized with 0 coefficients 


     atomic species   valence    mass     pseudopotential
        Cd            12.00   121.41100     Cd( 1.00)
        Se            16.00    78.96000     Se( 1.00)

     Starting magnetic structure 
     atomic species   magnetization
        Cd           0.100
        Se           0.000

     No symmetry found



   Cartesian axes

     site n.     atom                  positions (alat units)
         1           Cd  tau(   1) = (   0.0086876   2.6744316   8.8057942  )
         2           Cd  tau(   2) = (   2.3347733   1.3612192   4.5649119  )
         3           Se  tau(   3) = (  -0.0007514   2.7119144   2.8875395  )
         4           Se  tau(   4) = (   2.3390191   1.3487781   7.1053453  )

     number of k points=     1  gaussian smearing, width (Ry)=  0.0050
                       cart. coord. in units 2pi/alat
        k(    1) = (   0.0000000   0.0000000   0.0000000), wk =   1.0000000

     Dense  grid:    37187 G-vectors     FFT dimensions: (  36,  36,  72)

     Estimated max dynamical RAM per process >      40.32 MB

     Estimated total dynamical RAM >     161.26 MB
     Generating pointlists ...
     new r_m :   0.4125 (alat units)  0.7796 (a.u.) for type    1
     new r_m :   0.4125 (alat units)  0.7796 (a.u.) for type    2

     Initial potential from superposition of free atoms

     starting charge   55.99008, renormalised to   56.00000

     negative rho (up, down):  1.542E-06 7.763E-07
     Starting wfc are   36 randomized atomic wfcs +    4 random wfc

     total cpu time spent up to now is        3.4 secs

     Self-consistent Calculation

     iteration #  1     ecut=    40.00 Ry     beta= 0.45
     Davidson diagonalization with overlap
     ethr =  1.00E-02,  avg # of iterations =  7.0

     Threshold (ethr) on eigenvalues was too large:
     Diagonalizing with lowered threshold

     Davidson diagonalization with overlap
     ethr =  5.12E-04,  avg # of iterations =  1.0

     negative rho (up, down):  1.124E-05 3.056E-05

     total cpu time spent up to now is        4.5 secs

     total energy              =    -717.12516910 Ry
     Harris-Foulkes estimate   =    -717.23583755 Ry
     estimated scf accuracy    <       0.28202194 Ry

     total magnetization       =     1.44 Bohr mag/cell
     absolute magnetization    =     1.45 Bohr mag/cell

     iteration #  2     ecut=    40.00 Ry     beta= 0.45
     Davidson diagonalization with overlap
     ethr =  5.04E-04,  avg # of iterations =  2.0

     negative rho (up, down):  1.949E-05 3.336E-05

     total cpu time spent up to now is        5.0 secs

     total energy              =    -717.15978621 Ry
     Harris-Foulkes estimate   =    -717.21744104 Ry
     estimated scf accuracy    <       0.18334646 Ry

     total magnetization       =     1.66 Bohr mag/cell
     absolute magnetization    =     1.67 Bohr mag/cell

     iteration #  3     ecut=    40.00 Ry     beta= 0.45
     Davidson diagonalization with overlap
     ethr =  3.27E-04,  avg # of iterations =  6.0

     negative rho (up, down):  2.483E-05 3.953E-05

     total cpu time spent up to now is        5.6 secs

     total energy              =    -717.18906465 Ry
     Harris-Foulkes estimate   =    -717.32762199 Ry
     estimated scf accuracy    <       1.10094253 Ry

     total magnetization       =     1.95 Bohr mag/cell
     absolute magnetization    =     1.98 Bohr mag/cell

     iteration #  4     ecut=    40.00 Ry     beta= 0.45
     Davidson diagonalization with overlap
     ethr =  3.27E-04,  avg # of iterations =  2.0

     negative rho (up, down):  4.267E-05 6.078E-05

     total cpu time spent up to now is        6.2 secs

     total energy              =    -717.22638792 Ry
     Harris-Foulkes estimate   =    -717.22255767 Ry
     estimated scf accuracy    <       0.05084685 Ry

     total magnetization       =     2.00 Bohr mag/cell
     absolute magnetization    =     2.02 Bohr mag/cell

     iteration #  5     ecut=    40.00 Ry     beta= 0.45
     Davidson diagonalization with overlap
     ethr =  9.08E-05,  avg # of iterations =  2.5

     negative rho (up, down):  5.917E-05 8.114E-05

     total cpu time spent up to now is        6.7 secs

     total energy              =    -717.22583085 Ry
     Harris-Foulkes estimate   =    -717.23861834 Ry
     estimated scf accuracy    <       0.18466751 Ry

     total magnetization       =     2.00 Bohr mag/cell
     absolute magnetization    =     2.04 Bohr mag/cell

     iteration #  6     ecut=    40.00 Ry     beta= 0.45
     Davidson diagonalization with overlap
     ethr =  9.08E-05,  avg # of iterations =  1.0

     negative rho (up, down):  8.149E-05 1.108E-04

     total cpu time spent up to now is        7.2 secs

     total energy              =    -717.23692708 Ry
     Harris-Foulkes estimate   =    -717.23922598 Ry
     estimated scf accuracy    <       0.07886547 Ry

     total magnetization       =     2.00 Bohr mag/cell
     absolute magnetization    =     2.06 Bohr mag/cell

     iteration #  7     ecut=    40.00 Ry     beta= 0.45
     Davidson diagonalization with overlap
     ethr =  9.08E-05,  avg # of iterations =  1.0

     negative rho (up, down):  7.605E-05 1.104E-04

     total cpu time spent up to now is        7.7 secs

     total energy              =    -717.23904440 Ry
     Harris-Foulkes estimate   =    -717.23900874 Ry
     estimated scf accuracy    <       0.00021804 Ry

     total magnetization       =     2.00 Bohr mag/cell
     absolute magnetization    =     2.08 Bohr mag/cell

     iteration #  8     ecut=    40.00 Ry     beta= 0.45
     Davidson diagonalization with overlap
     ethr =  3.89E-07,  avg # of iterations = 10.0

     negative rho (up, down):  7.560E-05 1.107E-04

     total cpu time spent up to now is        8.4 secs

     total energy              =    -717.23911524 Ry
     Harris-Foulkes estimate   =    -717.23910692 Ry
     estimated scf accuracy    <       0.00037976 Ry

     total magnetization       =     2.00 Bohr mag/cell
     absolute magnetization    =     2.09 Bohr mag/cell

     iteration #  9     ecut=    40.00 Ry     beta= 0.45
     Davidson diagonalization with overlap
     ethr =  3.89E-07,  avg # of iterations =  1.0

     negative rho (up, down):  7.528E-05 1.111E-04

     total cpu time spent up to now is        9.0 secs

     total energy              =    -717.23911849 Ry
     Harris-Foulkes estimate   =    -717.23912063 Ry
     estimated scf accuracy    <       0.00011248 Ry

     total magnetization       =     2.00 Bohr mag/cell
     absolute magnetization    =     2.09 Bohr mag/cell

     iteration # 10     ecut=    40.00 Ry     beta= 0.45
     Davidson diagonalization with overlap
     ethr =  2.01E-07,  avg # of iterations =  1.0

     negative rho (up, down):  7.539E-05 1.114E-04

     total cpu time spent up to now is        9.5 secs

     total energy              =    -717.23912485 Ry
     Harris-Foulkes estimate   =    -717.23912497 Ry
     estimated scf accuracy    <       0.00001096 Ry

     total magnetization       =     2.00 Bohr mag/cell
     absolute magnetization    =     2.09 Bohr mag/cell

     iteration # 11     ecut=    40.00 Ry     beta= 0.45
     Davidson diagonalization with overlap
     ethr =  1.96E-08,  avg # of iterations =  1.5

     negative rho (up, down):  7.528E-05 1.116E-04

     Magnetic moment per site:
     atom:    1    charge:    2.2846    magn:    0.0084    constr:    0.0000
     atom:    2    charge:    2.2795    magn:    0.0084    constr:    0.0000
     atom:    3    charge:    8.0256    magn:    0.0267    constr:    0.0000
     atom:    4    charge:    8.0261    magn:    0.0274    constr:    0.0000

     total cpu time spent up to now is       10.0 secs

     End of self-consistent calculation

 ------ SPIN UP ------------


          k = 0.0000 0.0000 0.0000 (  4621 PWs)   bands (ev):

   -43.9355 -43.9292 -43.9181 -43.8926 -43.8894 -43.8854 -43.8821 -43.8815
   -43.8437 -43.8381  -9.3769  -9.2178  -4.9532  -4.9135  -4.9025  -4.8490
    -4.8442  -4.8124  -4.7976  -4.7948  -4.7841  -4.7798  -1.2181   1.3984
     1.6394   1.6954   2.0637   2.0812   2.1483   4.9694   7.9243   8.2099
     8.2520   8.4721   9.1996   9.2366   9.9953  10.8898  11.0233  11.9441

 ------ SPIN DOWN ----------


          k = 0.0000 0.0000 0.0000 (  4621 PWs)   bands (ev):

   -43.8413 -43.8168 -43.8083 -43.8006 -43.7805 -43.7748 -43.7275 -43.7235
   -43.6891 -43.6836  -8.6517  -8.4705  -4.9237  -4.8633  -4.8562  -4.8106
    -4.8074  -4.7974  -4.7935  -4.7848  -4.7800  -4.7696  -1.0618   1.6713
     2.2653   2.5597   2.6205   3.0477   3.0652   5.0965   8.0772   8.3249
     8.3677   8.6389   9.4178   9.4587  10.0265  11.1788  11.3105  12.0062

     the Fermi energy is     2.8333 ev

!    total energy              =    -717.23912582 Ry
     Harris-Foulkes estimate   =    -717.23912559 Ry
     estimated scf accuracy    <       0.00000086 Ry

     The total energy is the sum of the following terms:

     one-electron contribution =    -608.96633379 Ry
     hartree contribution      =     323.73541966 Ry
     xc contribution           =    -102.43075844 Ry
     ewald contribution        =    -329.57745310 Ry
     smearing contrib. (-TS)   =      -0.00000016 Ry

     total magnetization       =     2.00 Bohr mag/cell
     absolute magnetization    =     2.09 Bohr mag/cell

     convergence has been achieved in  11 iterations

     Writing output data file x0.save

     init_run     :      1.90s CPU      2.00s WALL (       1 calls)
     electrons    :      6.14s CPU      6.62s WALL (       1 calls)

     Called by init_run:
     wfcinit      :      0.07s CPU      0.07s WALL (       1 calls)
     potinit      :      0.52s CPU      0.54s WALL (       1 calls)

     Called by electrons:
     c_bands      :      2.05s CPU      2.26s WALL (      12 calls)
     sum_band     :      2.43s CPU      2.55s WALL (      12 calls)
     v_of_rho     :      0.70s CPU      0.74s WALL (      12 calls)
     newd         :      1.06s CPU      1.10s WALL (      12 calls)
     mix_rho      :      0.05s CPU      0.05s WALL (      12 calls)

     Called by c_bands:
     init_us_2    :      0.04s CPU      0.04s WALL (      50 calls)
     cegterg      :      1.94s CPU      2.16s WALL (      24 calls)

     Called by sum_band:
     sum_band:bec :      0.00s CPU      0.00s WALL (      24 calls)
     addusdens    :      2.09s CPU      2.15s WALL (      12 calls)

     Called by *egterg:
     h_psi        :      1.43s CPU      1.60s WALL (      98 calls)
     s_psi        :      0.04s CPU      0.05s WALL (      98 calls)
     g_psi        :      0.01s CPU      0.01s WALL (      72 calls)
     cdiaghg      :      0.28s CPU      0.29s WALL (      94 calls)

     Called by h_psi:
     h_psi:pot    :      1.42s CPU      1.59s WALL (      98 calls)
     h_psi:calbec :      0.05s CPU      0.06s WALL (      98 calls)
     vloc_psi     :      1.32s CPU      1.49s WALL (      98 calls)
     add_vuspsi   :      0.04s CPU      0.05s WALL (      98 calls)

     General routines
     calbec       :      0.07s CPU      0.08s WALL (     122 calls)
     fft          :      0.19s CPU      0.29s WALL (     302 calls)
     fftw         :      1.44s CPU      1.63s WALL (    5386 calls)

     Parallel routines
     fft_scatt_xy :      0.17s CPU      0.19s WALL (    5688 calls)
     fft_scatt_yz :      0.43s CPU      0.59s WALL (    5688 calls)

     PWSCF        :     9.41s CPU        10.59s WALL


   This run was terminated on:  15: 6:12  12Jul2022            

=------------------------------------------------------------------------------=
   JOB DONE.
=------------------------------------------------------------------------------=
