
     Program PWSCF v.6.2 (svn rev. 14038) starts on 12Jul2022 at 15: 5:54 

     This program is part of the open-source Quantum ESPRESSO suite
     for quantum simulation of materials; please cite
         "P. Giannozzi et al., J. Phys.:Condens. Matter 21 395502 (2009);
         "P. Giannozzi et al., J. Phys.:Condens. Matter 29 465901 (2017);
          URL http://www.quantum-espresso.org", 
     in publications or presentations arising from this work. More details at
     http://www.quantum-espresso.org/quote

     Parallel version (MPI), running on     4 processors

     MPI processes distributed on     1 nodes
     R & G space division:  proc/nbgrp/npool/nimage =       4
     Waiting for input...
     Reading input from standard input
Warning: card &IONS ignored
Warning: card   ION_DYNAMICS = 'VERLET', ignored
Warning: card   ION_TEMPERATURE = 'ANDERSEN', ignored
Warning: card   TEMPW = 300.00 , ignored
Warning: card   NRAISE = 1, ignored
Warning: card / ignored

     Current dimensions of program PWSCF are:
     Max number of different atomic species (ntypx) = 10
     Max number of k-points (npk) =  40000
     Max angular momentum in pseudopotentials (lmaxx) =  3
               file Cd.pbe-n-rrkjus_psl.1.0.0.UPF: wavefunction(s)  4D renormalized

     Subspace diagonalization in iterative solution of the eigenvalue problem:
     a serial algorithm will be used


     Parallelization info
     --------------------
     sticks:   dense  smooth     PW     G-vecs:    dense   smooth      PW
     Min         215     215     52                 9295     9295    1151
     Max         216     216     53                 9298     9298    1158
     Sum         863     863    211                37187    37187    4621



     bravais-lattice index     =            0
     lattice parameter (alat)  =       1.8900  a.u.
     unit-cell volume          =    1089.4295 (a.u.)^3
     number of atoms/cell      =            4
     number of atomic types    =            2
     number of electrons       =        56.00
     number of Kohn-Sham states=           40
     kinetic-energy cutoff     =      40.0000  Ry
     charge density cutoff     =     160.0000  Ry
     convergence threshold     =      1.0E-05
     mixing beta               =       0.4500
     number of iterations used =            8  plain     mixing
     Exchange-correlation      = PBE ( 1  4  3  4 0 0)

     celldm(1)=   1.890000  celldm(2)=   0.000000  celldm(3)=   0.000000
     celldm(4)=   0.000000  celldm(5)=   0.000000  celldm(6)=   0.000000

     crystal axes: (cart. coord. in units of alat)
               a(1) = (   4.716987  -0.015513  -0.002401 )  
               a(2) = (  -2.371927   4.062830  -0.000274 )  
               a(3) = (  -0.002553  -0.001388   8.436361 )  

     reciprocal axes: (cart. coord. in units 2 pi/alat)
               b(1) = (  0.212408  0.124006  0.000085 )  
               b(2) = (  0.000811  0.246607  0.000041 )  
               b(3) = (  0.000060  0.000043  0.118535 )  


     PseudoPot. # 1 for Cd read from file:
     /projects/academic/cyberwksp21/Students/jstetzler/QE_examples/Tutorials_QE_and_eQE/6_nac_workflow/step2b/PP/Cd.pbe-n-rrkjus_psl.1.0.0.UPF
     MD5 check sum: a744746c89d2344a134ead0d8ab94e7a
     Pseudo is Ultrasoft + core correction, Zval = 12.0
     Generated using "atomic" code by A. Dal Corso v.6.3
     Using radial grid of 1239 points,  6 beta functions with: 
                l(1) =   0
                l(2) =   0
                l(3) =   1
                l(4) =   1
                l(5) =   2
                l(6) =   2
     Q(r) pseudized with 0 coefficients 


     PseudoPot. # 2 for Se read from file:
     /projects/academic/cyberwksp21/Students/jstetzler/QE_examples/Tutorials_QE_and_eQE/6_nac_workflow/step2b/PP/Se.pbe-dn-rrkjus_psl.1.0.0.UPF
     MD5 check sum: 497c2ee764913186385bad8d0f9c7a86
     Pseudo is Ultrasoft + core correction, Zval = 16.0
     Generated using "atomic" code by A. Dal Corso v.6.3
     Using radial grid of 1211 points,  6 beta functions with: 
                l(1) =   0
                l(2) =   0
                l(3) =   1
                l(4) =   1
                l(5) =   2
                l(6) =   2
     Q(r) pseudized with 0 coefficients 


     atomic species   valence    mass     pseudopotential
        Cd            12.00   121.41100     Cd( 1.00)
        Se            16.00    78.96000     Se( 1.00)

     Starting magnetic structure 
     atomic species   magnetization
        Cd           0.100
        Se           0.000

     No symmetry found



   Cartesian axes

     site n.     atom                  positions (alat units)
         1           Cd  tau(   1) = (   0.0034740   2.6794214   8.7980554  )
         2           Cd  tau(   2) = (   2.3371876   1.3671218   4.5775164  )
         3           Se  tau(   3) = (  -0.0049371   2.7014001   2.8860797  )
         4           Se  tau(   4) = (   2.3475090   1.3425440   7.0993235  )

     number of k points=     1  gaussian smearing, width (Ry)=  0.0050
                       cart. coord. in units 2pi/alat
        k(    1) = (   0.0000000   0.0000000   0.0000000), wk =   1.0000000

     Dense  grid:    37187 G-vectors     FFT dimensions: (  36,  36,  72)

     Estimated max dynamical RAM per process >      40.32 MB

     Estimated total dynamical RAM >     161.26 MB
     Generating pointlists ...
     new r_m :   0.4125 (alat units)  0.7796 (a.u.) for type    1
     new r_m :   0.4125 (alat units)  0.7796 (a.u.) for type    2

     Initial potential from superposition of free atoms

     starting charge   55.99008, renormalised to   56.00000

     negative rho (up, down):  2.432E-06 1.499E-06
     Starting wfc are   36 randomized atomic wfcs +    4 random wfc

     total cpu time spent up to now is        3.4 secs

     Self-consistent Calculation

     iteration #  1     ecut=    40.00 Ry     beta= 0.45
     Davidson diagonalization with overlap
     ethr =  1.00E-02,  avg # of iterations =  7.0

     Threshold (ethr) on eigenvalues was too large:
     Diagonalizing with lowered threshold

     Davidson diagonalization with overlap
     ethr =  5.13E-04,  avg # of iterations =  1.0

     negative rho (up, down):  1.071E-05 3.200E-05

     total cpu time spent up to now is        4.4 secs

     total energy              =    -717.12533443 Ry
     Harris-Foulkes estimate   =    -717.23632466 Ry
     estimated scf accuracy    <       0.28260368 Ry

     total magnetization       =     1.45 Bohr mag/cell
     absolute magnetization    =     1.46 Bohr mag/cell

     iteration #  2     ecut=    40.00 Ry     beta= 0.45
     Davidson diagonalization with overlap
     ethr =  5.05E-04,  avg # of iterations =  2.0

     negative rho (up, down):  2.412E-05 3.871E-05

     total cpu time spent up to now is        5.0 secs

     total energy              =    -717.20782222 Ry
     Harris-Foulkes estimate   =    -717.21421396 Ry
     estimated scf accuracy    <       0.05824995 Ry

     total magnetization       =     1.68 Bohr mag/cell
     absolute magnetization    =     1.69 Bohr mag/cell

     iteration #  3     ecut=    40.00 Ry     beta= 0.45
     Davidson diagonalization with overlap
     ethr =  1.04E-04,  avg # of iterations =  4.0

     negative rho (up, down):  3.420E-05 4.899E-05

     total cpu time spent up to now is        5.6 secs

     total energy              =    -717.22013702 Ry
     Harris-Foulkes estimate   =    -717.21996349 Ry
     estimated scf accuracy    <       0.02789206 Ry

     total magnetization       =     2.00 Bohr mag/cell
     absolute magnetization    =     2.02 Bohr mag/cell

     iteration #  4     ecut=    40.00 Ry     beta= 0.45
     Davidson diagonalization with overlap
     ethr =  4.98E-05,  avg # of iterations =  8.0

     negative rho (up, down):  4.486E-05 6.056E-05

     total cpu time spent up to now is        6.2 secs

     total energy              =    -717.21676587 Ry
     Harris-Foulkes estimate   =    -717.25724511 Ry
     estimated scf accuracy    <       0.58998355 Ry

     total magnetization       =     2.00 Bohr mag/cell
     absolute magnetization    =     2.03 Bohr mag/cell

     iteration #  5     ecut=    40.00 Ry     beta= 0.45
     Davidson diagonalization with overlap
     ethr =  4.98E-05,  avg # of iterations =  2.0

     negative rho (up, down):  8.539E-05 1.084E-04

     total cpu time spent up to now is        6.8 secs

     total energy              =    -717.23834063 Ry
     Harris-Foulkes estimate   =    -717.23322262 Ry
     estimated scf accuracy    <       0.00352456 Ry

     total magnetization       =     2.00 Bohr mag/cell
     absolute magnetization    =     2.04 Bohr mag/cell

     iteration #  6     ecut=    40.00 Ry     beta= 0.45
     Davidson diagonalization with overlap
     ethr =  6.29E-06,  avg # of iterations = 11.0

     negative rho (up, down):  8.266E-05 1.092E-04

     total cpu time spent up to now is        7.5 secs

     total energy              =    -717.23897960 Ry
     Harris-Foulkes estimate   =    -717.23936214 Ry
     estimated scf accuracy    <       0.00507836 Ry

     total magnetization       =     2.00 Bohr mag/cell
     absolute magnetization    =     2.08 Bohr mag/cell

     iteration #  7     ecut=    40.00 Ry     beta= 0.45
     Davidson diagonalization with overlap
     ethr =  6.29E-06,  avg # of iterations =  1.0

     negative rho (up, down):  8.022E-05 1.091E-04

     total cpu time spent up to now is        8.0 secs

     total energy              =    -717.23925684 Ry
     Harris-Foulkes estimate   =    -717.23929168 Ry
     estimated scf accuracy    <       0.00124891 Ry

     total magnetization       =     2.00 Bohr mag/cell
     absolute magnetization    =     2.09 Bohr mag/cell

     iteration #  8     ecut=    40.00 Ry     beta= 0.45
     Davidson diagonalization with overlap
     ethr =  2.23E-06,  avg # of iterations =  1.0

     negative rho (up, down):  7.754E-05 1.092E-04

     total cpu time spent up to now is        8.5 secs

     total energy              =    -717.23927369 Ry
     Harris-Foulkes estimate   =    -717.23927741 Ry
     estimated scf accuracy    <       0.00017044 Ry

     total magnetization       =     2.00 Bohr mag/cell
     absolute magnetization    =     2.09 Bohr mag/cell

     iteration #  9     ecut=    40.00 Ry     beta= 0.45
     Davidson diagonalization with overlap
     ethr =  3.04E-07,  avg # of iterations =  2.0

     negative rho (up, down):  7.706E-05 1.097E-04

     total cpu time spent up to now is        9.1 secs

     total energy              =    -717.23928591 Ry
     Harris-Foulkes estimate   =    -717.23928900 Ry
     estimated scf accuracy    <       0.00006798 Ry

     total magnetization       =     2.00 Bohr mag/cell
     absolute magnetization    =     2.09 Bohr mag/cell

     iteration # 10     ecut=    40.00 Ry     beta= 0.45
     Davidson diagonalization with overlap
     ethr =  1.21E-07,  avg # of iterations =  1.0

     negative rho (up, down):  7.639E-05 1.101E-04

     Magnetic moment per site:
     atom:    1    charge:    2.2796    magn:    0.0084    constr:    0.0000
     atom:    2    charge:    2.2798    magn:    0.0085    constr:    0.0000
     atom:    3    charge:    8.0194    magn:    0.0271    constr:    0.0000
     atom:    4    charge:    8.0142    magn:    0.0270    constr:    0.0000

     total cpu time spent up to now is        9.6 secs

     End of self-consistent calculation

 ------ SPIN UP ------------


          k = 0.0000 0.0000 0.0000 (  4621 PWs)   bands (ev):

   -43.9281 -43.9138 -43.9104 -43.9016 -43.9006 -43.8959 -43.8729 -43.8681
   -43.8578 -43.8529  -9.3825  -9.2227  -4.9559  -4.9138  -4.9053  -4.8510
    -4.8476  -4.8170  -4.7957  -4.7927  -4.7903  -4.7865  -1.2240   1.3880
     1.6432   1.6931   2.0653   2.0814   2.1521   4.9774   7.9253   8.2120
     8.2508   8.4831   9.2170   9.2284   9.9940  10.8908  11.0147  11.9455

 ------ SPIN DOWN ----------


          k = 0.0000 0.0000 0.0000 (  4621 PWs)   bands (ev):

   -43.8354 -43.8084 -43.8041 -43.8005 -43.7916 -43.7865 -43.7162 -43.7112
   -43.7013 -43.6962  -8.6585  -8.4780  -4.9254  -4.8639  -4.8582  -4.8126
    -4.8101  -4.7945  -4.7917  -4.7907  -4.7866  -4.7740  -1.0670   1.6608
     2.2705   2.5615   2.6155   3.0476   3.0648   5.1050   8.0779   8.3279
     8.3669   8.6510   9.4398   9.4462  10.0248  11.1793  11.3026  12.0075

     the Fermi energy is     2.8307 ev

!    total energy              =    -717.23928410 Ry
     Harris-Foulkes estimate   =    -717.23928951 Ry
     estimated scf accuracy    <       0.00000702 Ry

     The total energy is the sum of the following terms:

     one-electron contribution =    -609.11364392 Ry
     hartree contribution      =     323.80194288 Ry
     xc contribution           =    -102.43144256 Ry
     ewald contribution        =    -329.49614038 Ry
     smearing contrib. (-TS)   =      -0.00000013 Ry

     total magnetization       =     2.00 Bohr mag/cell
     absolute magnetization    =     2.09 Bohr mag/cell

     convergence has been achieved in  10 iterations

     Writing output data file x0.save

     init_run     :      1.94s CPU      1.98s WALL (       1 calls)
     electrons    :      6.01s CPU      6.25s WALL (       1 calls)

     Called by init_run:
     wfcinit      :      0.06s CPU      0.07s WALL (       1 calls)
     potinit      :      0.53s CPU      0.54s WALL (       1 calls)

     Called by electrons:
     c_bands      :      2.05s CPU      2.18s WALL (      11 calls)
     sum_band     :      2.35s CPU      2.38s WALL (      11 calls)
     v_of_rho     :      0.67s CPU      0.69s WALL (      11 calls)
     newd         :      1.04s CPU      1.05s WALL (      11 calls)
     mix_rho      :      0.05s CPU      0.05s WALL (      11 calls)

     Called by c_bands:
     init_us_2    :      0.04s CPU      0.04s WALL (      46 calls)
     cegterg      :      1.95s CPU      2.08s WALL (      22 calls)

     Called by sum_band:
     sum_band:bec :      0.00s CPU      0.00s WALL (      22 calls)
     addusdens    :      2.02s CPU      2.03s WALL (      11 calls)

     Called by *egterg:
     h_psi        :      1.36s CPU      1.48s WALL (     104 calls)
     s_psi        :      0.05s CPU      0.05s WALL (     104 calls)
     g_psi        :      0.01s CPU      0.01s WALL (      80 calls)
     cdiaghg      :      0.32s CPU      0.33s WALL (     100 calls)

     Called by h_psi:
     h_psi:pot    :      1.34s CPU      1.46s WALL (     104 calls)
     h_psi:calbec :      0.06s CPU      0.06s WALL (     104 calls)
     vloc_psi     :      1.24s CPU      1.35s WALL (     104 calls)
     add_vuspsi   :      0.05s CPU      0.05s WALL (     104 calls)

     General routines
     calbec       :      0.08s CPU      0.08s WALL (     126 calls)
     fft          :      0.13s CPU      0.15s WALL (     277 calls)
     fftw         :      1.34s CPU      1.46s WALL (    5020 calls)

     Parallel routines
     fft_scatt_xy :      0.17s CPU      0.18s WALL (    5297 calls)
     fft_scatt_yz :      0.28s CPU      0.32s WALL (    5297 calls)

     PWSCF        :     9.33s CPU        10.09s WALL


   This run was terminated on:  15: 6: 4  12Jul2022            

=------------------------------------------------------------------------------=
   JOB DONE.
=------------------------------------------------------------------------------=
