
     Program PWSCF v.6.2 (svn rev. 14038) starts on 12Jul2022 at 15: 6:19 

     This program is part of the open-source Quantum ESPRESSO suite
     for quantum simulation of materials; please cite
         "P. Giannozzi et al., J. Phys.:Condens. Matter 21 395502 (2009);
         "P. Giannozzi et al., J. Phys.:Condens. Matter 29 465901 (2017);
          URL http://www.quantum-espresso.org", 
     in publications or presentations arising from this work. More details at
     http://www.quantum-espresso.org/quote

     Parallel version (MPI), running on     4 processors

     MPI processes distributed on     1 nodes
     R & G space division:  proc/nbgrp/npool/nimage =       4
     Waiting for input...
     Reading input from standard input
Warning: card &IONS ignored
Warning: card   ION_DYNAMICS = 'VERLET', ignored
Warning: card   ION_TEMPERATURE = 'ANDERSEN', ignored
Warning: card   TEMPW = 300.00 , ignored
Warning: card   NRAISE = 1, ignored
Warning: card / ignored

     Current dimensions of program PWSCF are:
     Max number of different atomic species (ntypx) = 10
     Max number of k-points (npk) =  40000
     Max angular momentum in pseudopotentials (lmaxx) =  3
               file Cd.pbe-n-rrkjus_psl.1.0.0.UPF: wavefunction(s)  4D renormalized

     Subspace diagonalization in iterative solution of the eigenvalue problem:
     a serial algorithm will be used


     Parallelization info
     --------------------
     sticks:   dense  smooth     PW     G-vecs:    dense   smooth      PW
     Min         215     215     52                 9295     9295    1151
     Max         216     216     53                 9298     9298    1158
     Sum         863     863    211                37187    37187    4621



     bravais-lattice index     =            0
     lattice parameter (alat)  =       1.8900  a.u.
     unit-cell volume          =    1089.4295 (a.u.)^3
     number of atoms/cell      =            4
     number of atomic types    =            2
     number of electrons       =        56.00
     number of Kohn-Sham states=           40
     kinetic-energy cutoff     =      40.0000  Ry
     charge density cutoff     =     160.0000  Ry
     convergence threshold     =      1.0E-05
     mixing beta               =       0.4500
     number of iterations used =            8  plain     mixing
     Exchange-correlation      = PBE ( 1  4  3  4 0 0)

     celldm(1)=   1.890000  celldm(2)=   0.000000  celldm(3)=   0.000000
     celldm(4)=   0.000000  celldm(5)=   0.000000  celldm(6)=   0.000000

     crystal axes: (cart. coord. in units of alat)
               a(1) = (   4.716987  -0.015513  -0.002401 )  
               a(2) = (  -2.371927   4.062830  -0.000274 )  
               a(3) = (  -0.002553  -0.001388   8.436361 )  

     reciprocal axes: (cart. coord. in units 2 pi/alat)
               b(1) = (  0.212408  0.124006  0.000085 )  
               b(2) = (  0.000811  0.246607  0.000041 )  
               b(3) = (  0.000060  0.000043  0.118535 )  


     PseudoPot. # 1 for Cd read from file:
     /projects/academic/cyberwksp21/Students/jstetzler/QE_examples/Tutorials_QE_and_eQE/6_nac_workflow/step2b/PP/Cd.pbe-n-rrkjus_psl.1.0.0.UPF
     MD5 check sum: a744746c89d2344a134ead0d8ab94e7a
     Pseudo is Ultrasoft + core correction, Zval = 12.0
     Generated using "atomic" code by A. Dal Corso v.6.3
     Using radial grid of 1239 points,  6 beta functions with: 
                l(1) =   0
                l(2) =   0
                l(3) =   1
                l(4) =   1
                l(5) =   2
                l(6) =   2
     Q(r) pseudized with 0 coefficients 


     PseudoPot. # 2 for Se read from file:
     /projects/academic/cyberwksp21/Students/jstetzler/QE_examples/Tutorials_QE_and_eQE/6_nac_workflow/step2b/PP/Se.pbe-dn-rrkjus_psl.1.0.0.UPF
     MD5 check sum: 497c2ee764913186385bad8d0f9c7a86
     Pseudo is Ultrasoft + core correction, Zval = 16.0
     Generated using "atomic" code by A. Dal Corso v.6.3
     Using radial grid of 1211 points,  6 beta functions with: 
                l(1) =   0
                l(2) =   0
                l(3) =   1
                l(4) =   1
                l(5) =   2
                l(6) =   2
     Q(r) pseudized with 0 coefficients 


     atomic species   valence    mass     pseudopotential
        Cd            12.00   121.41100     Cd( 1.00)
        Se            16.00    78.96000     Se( 1.00)

     Starting magnetic structure 
     atomic species   magnetization
        Cd           0.100
        Se           0.000

     No symmetry found



   Cartesian axes

     site n.     atom                  positions (alat units)
         1           Cd  tau(   1) = (   0.0084667   2.6756655   8.8010325  )
         2           Cd  tau(   2) = (   2.3376407   1.3634099   4.5704637  )
         3           Se  tau(   3) = (  -0.0079712   2.7029512   2.8919847  )
         4           Se  tau(   4) = (   2.3421695   1.3524754   7.0996852  )

     number of k points=     1  gaussian smearing, width (Ry)=  0.0050
                       cart. coord. in units 2pi/alat
        k(    1) = (   0.0000000   0.0000000   0.0000000), wk =   1.0000000

     Dense  grid:    37187 G-vectors     FFT dimensions: (  36,  36,  72)

     Estimated max dynamical RAM per process >      40.32 MB

     Estimated total dynamical RAM >     161.26 MB
     Generating pointlists ...
     new r_m :   0.4125 (alat units)  0.7796 (a.u.) for type    1
     new r_m :   0.4125 (alat units)  0.7796 (a.u.) for type    2

     Initial potential from superposition of free atoms

     starting charge   55.99008, renormalised to   56.00000

     negative rho (up, down):  1.915E-06 1.080E-06
     Starting wfc are   36 randomized atomic wfcs +    4 random wfc

     total cpu time spent up to now is        3.4 secs

     Self-consistent Calculation

     iteration #  1     ecut=    40.00 Ry     beta= 0.45
     Davidson diagonalization with overlap
     ethr =  1.00E-02,  avg # of iterations =  7.0

     Threshold (ethr) on eigenvalues was too large:
     Diagonalizing with lowered threshold

     Davidson diagonalization with overlap
     ethr =  5.11E-04,  avg # of iterations =  1.0

     negative rho (up, down):  1.045E-05 3.072E-05

     total cpu time spent up to now is        4.4 secs

     total energy              =    -717.12552242 Ry
     Harris-Foulkes estimate   =    -717.23601710 Ry
     estimated scf accuracy    <       0.28177215 Ry

     total magnetization       =     1.45 Bohr mag/cell
     absolute magnetization    =     1.45 Bohr mag/cell

     iteration #  2     ecut=    40.00 Ry     beta= 0.45
     Davidson diagonalization with overlap
     ethr =  5.03E-04,  avg # of iterations =  2.0

     negative rho (up, down):  2.179E-05 3.523E-05

     total cpu time spent up to now is        5.0 secs

     total energy              =    -717.19250111 Ry
     Harris-Foulkes estimate   =    -717.21491569 Ry
     estimated scf accuracy    <       0.09144794 Ry

     total magnetization       =     1.67 Bohr mag/cell
     absolute magnetization    =     1.68 Bohr mag/cell

     iteration #  3     ecut=    40.00 Ry     beta= 0.45
     Davidson diagonalization with overlap
     ethr =  1.63E-04,  avg # of iterations =  4.5

     negative rho (up, down):  2.467E-05 3.932E-05

     total cpu time spent up to now is        5.6 secs

     total energy              =    -717.18766688 Ry
     Harris-Foulkes estimate   =    -717.27798493 Ry
     estimated scf accuracy    <       0.83167940 Ry

     total magnetization       =     1.99 Bohr mag/cell
     absolute magnetization    =     2.02 Bohr mag/cell

     iteration #  4     ecut=    40.00 Ry     beta= 0.45
     Davidson diagonalization with overlap
     ethr =  1.63E-04,  avg # of iterations =  4.5

     negative rho (up, down):  4.292E-05 6.046E-05

     total cpu time spent up to now is        6.2 secs

     total energy              =    -717.23110058 Ry
     Harris-Foulkes estimate   =    -717.22230715 Ry
     estimated scf accuracy    <       0.03290167 Ry

     total magnetization       =     2.00 Bohr mag/cell
     absolute magnetization    =     2.02 Bohr mag/cell

     iteration #  5     ecut=    40.00 Ry     beta= 0.45
     Davidson diagonalization with overlap
     ethr =  5.88E-05,  avg # of iterations =  1.0

     negative rho (up, down):  8.174E-05 1.083E-04

     total cpu time spent up to now is        6.7 secs

     total energy              =    -717.23648329 Ry
     Harris-Foulkes estimate   =    -717.23368928 Ry
     estimated scf accuracy    <       0.01794131 Ry

     total magnetization       =     2.00 Bohr mag/cell
     absolute magnetization    =     2.03 Bohr mag/cell

     iteration #  6     ecut=    40.00 Ry     beta= 0.45
     Davidson diagonalization with overlap
     ethr =  3.20E-05,  avg # of iterations =  1.5

     negative rho (up, down):  8.206E-05 1.114E-04

     total cpu time spent up to now is        7.2 secs

     total energy              =    -717.23735126 Ry
     Harris-Foulkes estimate   =    -717.24069817 Ry
     estimated scf accuracy    <       0.05904242 Ry

     total magnetization       =     2.00 Bohr mag/cell
     absolute magnetization    =     2.08 Bohr mag/cell

     iteration #  7     ecut=    40.00 Ry     beta= 0.45
     Davidson diagonalization with overlap
     ethr =  3.20E-05,  avg # of iterations =  1.0

     negative rho (up, down):  7.849E-05 1.114E-04

     total cpu time spent up to now is        7.8 secs

     total energy              =    -717.23924085 Ry
     Harris-Foulkes estimate   =    -717.23920136 Ry
     estimated scf accuracy    <       0.00060747 Ry

     total magnetization       =     2.00 Bohr mag/cell
     absolute magnetization    =     2.08 Bohr mag/cell

     iteration #  8     ecut=    40.00 Ry     beta= 0.45
     Davidson diagonalization with overlap
     ethr =  1.08E-06,  avg # of iterations = 16.5

     negative rho (up, down):  7.645E-05 1.102E-04

     total cpu time spent up to now is        8.5 secs

     total energy              =    -717.23918892 Ry
     Harris-Foulkes estimate   =    -717.23931467 Ry
     estimated scf accuracy    <       0.00268671 Ry

     total magnetization       =     2.00 Bohr mag/cell
     absolute magnetization    =     2.09 Bohr mag/cell

     iteration #  9     ecut=    40.00 Ry     beta= 0.45
     Davidson diagonalization with overlap
     ethr =  1.08E-06,  avg # of iterations =  1.0

     negative rho (up, down):  7.523E-05 1.099E-04

     Magnetic moment per site:
     atom:    1    charge:    2.2821    magn:    0.0082    constr:    0.0000
     atom:    2    charge:    2.2786    magn:    0.0084    constr:    0.0000
     atom:    3    charge:    8.0234    magn:    0.0269    constr:    0.0000
     atom:    4    charge:    8.0214    magn:    0.0273    constr:    0.0000

     total cpu time spent up to now is        9.0 secs

     End of self-consistent calculation

 ------ SPIN UP ------------


          k = 0.0000 0.0000 0.0000 (  4621 PWs)   bands (ev):

   -43.9246 -43.9146 -43.9074 -43.8909 -43.8880 -43.8847 -43.8718 -43.8678
   -43.8460 -43.8405  -9.3727  -9.2128  -4.9494  -4.9085  -4.8983  -4.8459
    -4.8414  -4.8092  -4.7902  -4.7873  -4.7850  -4.7806  -1.2190   1.3984
     1.6448   1.7011   2.0694   2.0864   2.1483   4.9698   7.9269   8.2080
     8.2497   8.4732   9.2137   9.2229   9.9936  10.8897  11.0226  11.9430

 ------ SPIN DOWN ----------


          k = 0.0000 0.0000 0.0000 (  4621 PWs)   bands (ev):

   -43.8310 -43.8033 -43.7985 -43.7976 -43.7792 -43.7761 -43.7149 -43.7105
   -43.6907 -43.6853  -8.6523  -8.4723  -4.9184  -4.8569  -4.8502  -4.8061
    -4.8032  -4.7877  -4.7853  -4.7841  -4.7796  -4.7655  -1.0589   1.6727
     2.2695   2.5570   2.6181   3.0444   3.0622   5.0999   8.0805   8.3283
     8.3702   8.6420   9.4312   9.4502  10.0270  11.1781  11.3096  12.0058

     the Fermi energy is     2.8304 ev

!    total energy              =    -717.23926254 Ry
     Harris-Foulkes estimate   =    -717.23925770 Ry
     estimated scf accuracy    <       0.00000308 Ry

     The total energy is the sum of the following terms:

     one-electron contribution =    -608.97173620 Ry
     hartree contribution      =     323.72849288 Ry
     xc contribution           =    -102.42850863 Ry
     ewald contribution        =    -329.56751043 Ry
     smearing contrib. (-TS)   =      -0.00000017 Ry

     total magnetization       =     2.00 Bohr mag/cell
     absolute magnetization    =     2.09 Bohr mag/cell

     convergence has been achieved in   9 iterations

     Writing output data file x0.save

     init_run     :      1.92s CPU      1.96s WALL (       1 calls)
     electrons    :      5.45s CPU      5.66s WALL (       1 calls)

     Called by init_run:
     wfcinit      :      0.07s CPU      0.07s WALL (       1 calls)
     potinit      :      0.53s CPU      0.53s WALL (       1 calls)

     Called by electrons:
     c_bands      :      1.88s CPU      1.99s WALL (      10 calls)
     sum_band     :      2.14s CPU      2.16s WALL (      10 calls)
     v_of_rho     :      0.61s CPU      0.62s WALL (      10 calls)
     newd         :      0.94s CPU      0.95s WALL (      10 calls)
     mix_rho      :      0.04s CPU      0.04s WALL (      10 calls)

     Called by c_bands:
     init_us_2    :      0.03s CPU      0.04s WALL (      42 calls)
     cegterg      :      1.80s CPU      1.90s WALL (      20 calls)

     Called by sum_band:
     sum_band:bec :      0.00s CPU      0.00s WALL (      20 calls)
     addusdens    :      1.83s CPU      1.83s WALL (      10 calls)

     Called by *egterg:
     h_psi        :      1.24s CPU      1.34s WALL (     102 calls)
     s_psi        :      0.04s CPU      0.05s WALL (     102 calls)
     g_psi        :      0.01s CPU      0.01s WALL (      80 calls)
     cdiaghg      :      0.31s CPU      0.31s WALL (      98 calls)

     Called by h_psi:
     h_psi:pot    :      1.23s CPU      1.33s WALL (     102 calls)
     h_psi:calbec :      0.05s CPU      0.05s WALL (     102 calls)
     vloc_psi     :      1.14s CPU      1.23s WALL (     102 calls)
     add_vuspsi   :      0.04s CPU      0.04s WALL (     102 calls)

     General routines
     calbec       :      0.07s CPU      0.07s WALL (     122 calls)
     fft          :      0.12s CPU      0.13s WALL (     252 calls)
     fftw         :      1.24s CPU      1.33s WALL (    4558 calls)

     Parallel routines
     fft_scatt_xy :      0.15s CPU      0.16s WALL (    4810 calls)
     fft_scatt_yz :      0.26s CPU      0.29s WALL (    4810 calls)

     PWSCF        :     8.71s CPU         9.40s WALL


   This run was terminated on:  15: 6:28  12Jul2022            

=------------------------------------------------------------------------------=
   JOB DONE.
=------------------------------------------------------------------------------=
