
     Program PWSCF v.6.2 (svn rev. 14038) starts on 12Jul2022 at 15: 5:18 

     This program is part of the open-source Quantum ESPRESSO suite
     for quantum simulation of materials; please cite
         "P. Giannozzi et al., J. Phys.:Condens. Matter 21 395502 (2009);
         "P. Giannozzi et al., J. Phys.:Condens. Matter 29 465901 (2017);
          URL http://www.quantum-espresso.org", 
     in publications or presentations arising from this work. More details at
     http://www.quantum-espresso.org/quote

     Parallel version (MPI), running on     4 processors

     MPI processes distributed on     1 nodes
     R & G space division:  proc/nbgrp/npool/nimage =       4
     Waiting for input...
     Reading input from standard input
Warning: card &IONS ignored
Warning: card   ION_DYNAMICS = 'VERLET', ignored
Warning: card   ION_TEMPERATURE = 'ANDERSEN', ignored
Warning: card   TEMPW = 300.00 , ignored
Warning: card   NRAISE = 1, ignored
Warning: card / ignored

     Current dimensions of program PWSCF are:
     Max number of different atomic species (ntypx) = 10
     Max number of k-points (npk) =  40000
     Max angular momentum in pseudopotentials (lmaxx) =  3
               file Cd.pbe-n-rrkjus_psl.1.0.0.UPF: wavefunction(s)  4D renormalized

     Subspace diagonalization in iterative solution of the eigenvalue problem:
     a serial algorithm will be used


     Parallelization info
     --------------------
     sticks:   dense  smooth     PW     G-vecs:    dense   smooth      PW
     Min         215     215     52                 9295     9295    1151
     Max         216     216     53                 9298     9298    1158
     Sum         863     863    211                37187    37187    4621



     bravais-lattice index     =            0
     lattice parameter (alat)  =       1.8900  a.u.
     unit-cell volume          =    1089.4295 (a.u.)^3
     number of atoms/cell      =            4
     number of atomic types    =            2
     number of electrons       =        56.00
     number of Kohn-Sham states=           40
     kinetic-energy cutoff     =      40.0000  Ry
     charge density cutoff     =     160.0000  Ry
     convergence threshold     =      1.0E-05
     mixing beta               =       0.4500
     number of iterations used =            8  plain     mixing
     Exchange-correlation      = PBE ( 1  4  3  4 0 0)

     celldm(1)=   1.890000  celldm(2)=   0.000000  celldm(3)=   0.000000
     celldm(4)=   0.000000  celldm(5)=   0.000000  celldm(6)=   0.000000

     crystal axes: (cart. coord. in units of alat)
               a(1) = (   4.716987  -0.015513  -0.002401 )  
               a(2) = (  -2.371927   4.062830  -0.000274 )  
               a(3) = (  -0.002553  -0.001388   8.436361 )  

     reciprocal axes: (cart. coord. in units 2 pi/alat)
               b(1) = (  0.212408  0.124006  0.000085 )  
               b(2) = (  0.000811  0.246607  0.000041 )  
               b(3) = (  0.000060  0.000043  0.118535 )  


     PseudoPot. # 1 for Cd read from file:
     /projects/academic/cyberwksp21/Students/jstetzler/QE_examples/Tutorials_QE_and_eQE/6_nac_workflow/step2b/PP/Cd.pbe-n-rrkjus_psl.1.0.0.UPF
     MD5 check sum: a744746c89d2344a134ead0d8ab94e7a
     Pseudo is Ultrasoft + core correction, Zval = 12.0
     Generated using "atomic" code by A. Dal Corso v.6.3
     Using radial grid of 1239 points,  6 beta functions with: 
                l(1) =   0
                l(2) =   0
                l(3) =   1
                l(4) =   1
                l(5) =   2
                l(6) =   2
     Q(r) pseudized with 0 coefficients 


     PseudoPot. # 2 for Se read from file:
     /projects/academic/cyberwksp21/Students/jstetzler/QE_examples/Tutorials_QE_and_eQE/6_nac_workflow/step2b/PP/Se.pbe-dn-rrkjus_psl.1.0.0.UPF
     MD5 check sum: 497c2ee764913186385bad8d0f9c7a86
     Pseudo is Ultrasoft + core correction, Zval = 16.0
     Generated using "atomic" code by A. Dal Corso v.6.3
     Using radial grid of 1211 points,  6 beta functions with: 
                l(1) =   0
                l(2) =   0
                l(3) =   1
                l(4) =   1
                l(5) =   2
                l(6) =   2
     Q(r) pseudized with 0 coefficients 


     atomic species   valence    mass     pseudopotential
        Cd            12.00   121.41100     Cd( 1.00)
        Se            16.00    78.96000     Se( 1.00)

     Starting magnetic structure 
     atomic species   magnetization
        Cd           0.100
        Se           0.000

     No symmetry found



   Cartesian axes

     site n.     atom                  positions (alat units)
         1           Cd  tau(   1) = (   0.0085408   2.6795830   8.7980819  )
         2           Cd  tau(   2) = (   2.3371775   1.3662613   4.5740859  )
         3           Se  tau(   3) = (  -0.0083752   2.6978526   2.8920867  )
         4           Se  tau(   4) = (   2.3431717   1.3471660   7.0985504  )

     number of k points=     1  gaussian smearing, width (Ry)=  0.0050
                       cart. coord. in units 2pi/alat
        k(    1) = (   0.0000000   0.0000000   0.0000000), wk =   1.0000000

     Dense  grid:    37187 G-vectors     FFT dimensions: (  36,  36,  72)

     Estimated max dynamical RAM per process >      40.32 MB

     Estimated total dynamical RAM >     161.26 MB
     Generating pointlists ...
     new r_m :   0.4125 (alat units)  0.7796 (a.u.) for type    1
     new r_m :   0.4125 (alat units)  0.7796 (a.u.) for type    2

     Initial potential from superposition of free atoms

     starting charge   55.99008, renormalised to   56.00000

     negative rho (up, down):  2.001E-06 1.149E-06
     Starting wfc are   36 randomized atomic wfcs +    4 random wfc

     total cpu time spent up to now is        3.4 secs

     Self-consistent Calculation

     iteration #  1     ecut=    40.00 Ry     beta= 0.45
     Davidson diagonalization with overlap
     ethr =  1.00E-02,  avg # of iterations =  7.0

     Threshold (ethr) on eigenvalues was too large:
     Diagonalizing with lowered threshold

     Davidson diagonalization with overlap
     ethr =  5.11E-04,  avg # of iterations =  1.0

     negative rho (up, down):  1.014E-05 3.034E-05

     total cpu time spent up to now is        4.5 secs

     total energy              =    -717.12553866 Ry
     Harris-Foulkes estimate   =    -717.23607450 Ry
     estimated scf accuracy    <       0.28185442 Ry

     total magnetization       =     1.45 Bohr mag/cell
     absolute magnetization    =     1.45 Bohr mag/cell

     iteration #  2     ecut=    40.00 Ry     beta= 0.45
     Davidson diagonalization with overlap
     ethr =  5.03E-04,  avg # of iterations =  2.0

     negative rho (up, down):  2.310E-05 3.764E-05

     total cpu time spent up to now is        5.0 secs

     total energy              =    -717.20613984 Ry
     Harris-Foulkes estimate   =    -717.21418892 Ry
     estimated scf accuracy    <       0.06146711 Ry

     total magnetization       =     1.68 Bohr mag/cell
     absolute magnetization    =     1.69 Bohr mag/cell

     iteration #  3     ecut=    40.00 Ry     beta= 0.45
     Davidson diagonalization with overlap
     ethr =  1.10E-04,  avg # of iterations =  5.5

     negative rho (up, down):  2.505E-05 3.993E-05

     total cpu time spent up to now is        5.6 secs

     total energy              =    -717.19790260 Ry
     Harris-Foulkes estimate   =    -717.23040053 Ry
     estimated scf accuracy    <       0.32669220 Ry

     total magnetization       =     2.00 Bohr mag/cell
     absolute magnetization    =     2.02 Bohr mag/cell

     iteration #  4     ecut=    40.00 Ry     beta= 0.45
     Davidson diagonalization with overlap
     ethr =  1.10E-04,  avg # of iterations =  1.5

     negative rho (up, down):  4.332E-05 5.985E-05

     total cpu time spent up to now is        6.2 secs

     total energy              =    -717.22570971 Ry
     Harris-Foulkes estimate   =    -717.22921180 Ry
     estimated scf accuracy    <       0.24792773 Ry

     total magnetization       =     2.00 Bohr mag/cell
     absolute magnetization    =     2.02 Bohr mag/cell

     iteration #  5     ecut=    40.00 Ry     beta= 0.45
     Davidson diagonalization with overlap
     ethr =  1.10E-04,  avg # of iterations =  1.0

     negative rho (up, down):  8.483E-05 1.086E-04

     total cpu time spent up to now is        6.7 secs

     total energy              =    -717.23834112 Ry
     Harris-Foulkes estimate   =    -717.23301316 Ry
     estimated scf accuracy    <       0.00287130 Ry

     total magnetization       =     2.00 Bohr mag/cell
     absolute magnetization    =     2.03 Bohr mag/cell

     iteration #  6     ecut=    40.00 Ry     beta= 0.45
     Davidson diagonalization with overlap
     c_bands:  1 eigenvalues not converged
     ethr =  5.13E-06,  avg # of iterations = 15.5

     negative rho (up, down):  8.295E-05 1.112E-04

     total cpu time spent up to now is        7.4 secs

     total energy              =    -717.23922309 Ry
     Harris-Foulkes estimate   =    -717.23921787 Ry
     estimated scf accuracy    <       0.00022502 Ry

     total magnetization       =     2.00 Bohr mag/cell
     absolute magnetization    =     2.08 Bohr mag/cell

     iteration #  7     ecut=    40.00 Ry     beta= 0.45
     Davidson diagonalization with overlap
     ethr =  4.02E-07,  avg # of iterations =  6.5

     negative rho (up, down):  7.993E-05 1.105E-04

     total cpu time spent up to now is        8.0 secs

     total energy              =    -717.23926579 Ry
     Harris-Foulkes estimate   =    -717.23926302 Ry
     estimated scf accuracy    <       0.00002784 Ry

     total magnetization       =     2.00 Bohr mag/cell
     absolute magnetization    =     2.09 Bohr mag/cell

     iteration #  8     ecut=    40.00 Ry     beta= 0.45
     Davidson diagonalization with overlap
     ethr =  4.97E-08,  avg # of iterations =  2.0

     negative rho (up, down):  7.630E-05 1.105E-04

     Magnetic moment per site:
     atom:    1    charge:    2.2804    magn:    0.0083    constr:    0.0000
     atom:    2    charge:    2.2790    magn:    0.0085    constr:    0.0000
     atom:    3    charge:    8.0249    magn:    0.0270    constr:    0.0000
     atom:    4    charge:    8.0168    magn:    0.0271    constr:    0.0000

     total cpu time spent up to now is        8.6 secs

     End of self-consistent calculation

 ------ SPIN UP ------------


          k = 0.0000 0.0000 0.0000 (  4621 PWs)   bands (ev):

   -43.9291 -43.9167 -43.9123 -43.8998 -43.8983 -43.8953 -43.8756 -43.8710
   -43.8570 -43.8518  -9.3758  -9.2159  -4.9482  -4.9078  -4.8979  -4.8424
    -4.8376  -4.8071  -4.7936  -4.7907  -4.7767  -4.7723  -1.2203   1.3958
     1.6431   1.6989   2.0676   2.0841   2.1488   4.9702   7.9263   8.2083
     8.2492   8.4745   9.2154   9.2220   9.9939  10.8892  11.0209  11.9428

 ------ SPIN DOWN ----------


          k = 0.0000 0.0000 0.0000 (  4621 PWs)   bands (ev):

   -43.8359 -43.8069 -43.8062 -43.8023 -43.7890 -43.7855 -43.7190 -43.7143
   -43.7010 -43.6957  -8.6568  -8.4767  -4.9168  -4.8561  -4.8496  -4.8029
    -4.7996  -4.7910  -4.7875  -4.7766  -4.7709  -4.7633  -1.0589   1.6707
     2.2708   2.5541   2.6143   3.0407   3.0585   5.1007   8.0796   8.3305
     8.3715   8.6438   9.4336   9.4501  10.0273  11.1779  11.3086  12.0062

     the Fermi energy is     2.8267 ev

!    total energy              =    -717.23927734 Ry
     Harris-Foulkes estimate   =    -717.23927171 Ry
     estimated scf accuracy    <       0.00000567 Ry

     The total energy is the sum of the following terms:

     one-electron contribution =    -608.99840226 Ry
     hartree contribution      =     323.74373464 Ry
     xc contribution           =    -102.42872576 Ry
     ewald contribution        =    -329.55588378 Ry
     smearing contrib. (-TS)   =      -0.00000017 Ry

     total magnetization       =     2.00 Bohr mag/cell
     absolute magnetization    =     2.09 Bohr mag/cell

     convergence has been achieved in   8 iterations

     Writing output data file x0.save

     init_run     :      1.93s CPU      2.00s WALL (       1 calls)
     electrons    :      5.00s CPU      5.21s WALL (       1 calls)

     Called by init_run:
     wfcinit      :      0.07s CPU      0.07s WALL (       1 calls)
     potinit      :      0.53s CPU      0.54s WALL (       1 calls)

     Called by electrons:
     c_bands      :      1.84s CPU      1.95s WALL (       9 calls)
     sum_band     :      1.90s CPU      1.94s WALL (       9 calls)
     v_of_rho     :      0.53s CPU      0.55s WALL (       9 calls)
     newd         :      0.83s CPU      0.85s WALL (       9 calls)
     mix_rho      :      0.03s CPU      0.03s WALL (       9 calls)

     Called by c_bands:
     init_us_2    :      0.03s CPU      0.04s WALL (      38 calls)
     cegterg      :      1.76s CPU      1.86s WALL (      18 calls)

     Called by sum_band:
     sum_band:bec :      0.00s CPU      0.00s WALL (      18 calls)
     addusdens    :      1.63s CPU      1.64s WALL (       9 calls)

     Called by *egterg:
     h_psi        :      1.17s CPU      1.26s WALL (     104 calls)
     s_psi        :      0.04s CPU      0.04s WALL (     104 calls)
     g_psi        :      0.01s CPU      0.01s WALL (      84 calls)
     cdiaghg      :      0.35s CPU      0.36s WALL (     100 calls)

     Called by h_psi:
     h_psi:pot    :      1.16s CPU      1.25s WALL (     104 calls)
     h_psi:calbec :      0.05s CPU      0.05s WALL (     104 calls)
     vloc_psi     :      1.07s CPU      1.16s WALL (     104 calls)
     add_vuspsi   :      0.04s CPU      0.04s WALL (     104 calls)

     General routines
     calbec       :      0.06s CPU      0.07s WALL (     122 calls)
     fft          :      0.11s CPU      0.15s WALL (     227 calls)
     fftw         :      1.15s CPU      1.24s WALL (    4276 calls)

     Parallel routines
     fft_scatt_xy :      0.14s CPU      0.15s WALL (    4503 calls)
     fft_scatt_yz :      0.26s CPU      0.30s WALL (    4503 calls)

     PWSCF        :     8.28s CPU         8.95s WALL


   This run was terminated on:  15: 5:27  12Jul2022            

=------------------------------------------------------------------------------=
   JOB DONE.
=------------------------------------------------------------------------------=
