
     Program PWSCF v.6.2 (svn rev. 14038) starts on 12Jul2022 at 15: 7:17 

     This program is part of the open-source Quantum ESPRESSO suite
     for quantum simulation of materials; please cite
         "P. Giannozzi et al., J. Phys.:Condens. Matter 21 395502 (2009);
         "P. Giannozzi et al., J. Phys.:Condens. Matter 29 465901 (2017);
          URL http://www.quantum-espresso.org", 
     in publications or presentations arising from this work. More details at
     http://www.quantum-espresso.org/quote

     Parallel version (MPI), running on     4 processors

     MPI processes distributed on     1 nodes
     R & G space division:  proc/nbgrp/npool/nimage =       4
     Waiting for input...
     Reading input from standard input
Warning: card &IONS ignored
Warning: card   ION_DYNAMICS = 'VERLET', ignored
Warning: card   ION_TEMPERATURE = 'ANDERSEN', ignored
Warning: card   TEMPW = 300.00 , ignored
Warning: card   NRAISE = 1, ignored
Warning: card / ignored

     Current dimensions of program PWSCF are:
     Max number of different atomic species (ntypx) = 10
     Max number of k-points (npk) =  40000
     Max angular momentum in pseudopotentials (lmaxx) =  3
               file Cd.pbe-n-rrkjus_psl.1.0.0.UPF: wavefunction(s)  4D renormalized

     Subspace diagonalization in iterative solution of the eigenvalue problem:
     a serial algorithm will be used


     Parallelization info
     --------------------
     sticks:   dense  smooth     PW     G-vecs:    dense   smooth      PW
     Min         215     215     52                 9295     9295    1151
     Max         216     216     53                 9298     9298    1158
     Sum         863     863    211                37187    37187    4621



     bravais-lattice index     =            0
     lattice parameter (alat)  =       1.8900  a.u.
     unit-cell volume          =    1089.4295 (a.u.)^3
     number of atoms/cell      =            4
     number of atomic types    =            2
     number of electrons       =        56.00
     number of Kohn-Sham states=           40
     kinetic-energy cutoff     =      40.0000  Ry
     charge density cutoff     =     160.0000  Ry
     convergence threshold     =      1.0E-05
     mixing beta               =       0.4500
     number of iterations used =            8  plain     mixing
     Exchange-correlation      = PBE ( 1  4  3  4 0 0)

     celldm(1)=   1.890000  celldm(2)=   0.000000  celldm(3)=   0.000000
     celldm(4)=   0.000000  celldm(5)=   0.000000  celldm(6)=   0.000000

     crystal axes: (cart. coord. in units of alat)
               a(1) = (   4.716987  -0.015513  -0.002401 )  
               a(2) = (  -2.371927   4.062830  -0.000274 )  
               a(3) = (  -0.002553  -0.001388   8.436361 )  

     reciprocal axes: (cart. coord. in units 2 pi/alat)
               b(1) = (  0.212408  0.124006  0.000085 )  
               b(2) = (  0.000811  0.246607  0.000041 )  
               b(3) = (  0.000060  0.000043  0.118535 )  


     PseudoPot. # 1 for Cd read from file:
     /projects/academic/cyberwksp21/Students/jstetzler/QE_examples/Tutorials_QE_and_eQE/6_nac_workflow/step2b/PP/Cd.pbe-n-rrkjus_psl.1.0.0.UPF
     MD5 check sum: a744746c89d2344a134ead0d8ab94e7a
     Pseudo is Ultrasoft + core correction, Zval = 12.0
     Generated using "atomic" code by A. Dal Corso v.6.3
     Using radial grid of 1239 points,  6 beta functions with: 
                l(1) =   0
                l(2) =   0
                l(3) =   1
                l(4) =   1
                l(5) =   2
                l(6) =   2
     Q(r) pseudized with 0 coefficients 


     PseudoPot. # 2 for Se read from file:
     /projects/academic/cyberwksp21/Students/jstetzler/QE_examples/Tutorials_QE_and_eQE/6_nac_workflow/step2b/PP/Se.pbe-dn-rrkjus_psl.1.0.0.UPF
     MD5 check sum: 497c2ee764913186385bad8d0f9c7a86
     Pseudo is Ultrasoft + core correction, Zval = 16.0
     Generated using "atomic" code by A. Dal Corso v.6.3
     Using radial grid of 1211 points,  6 beta functions with: 
                l(1) =   0
                l(2) =   0
                l(3) =   1
                l(4) =   1
                l(5) =   2
                l(6) =   2
     Q(r) pseudized with 0 coefficients 


     atomic species   valence    mass     pseudopotential
        Cd            12.00   121.41100     Cd( 1.00)
        Se            16.00    78.96000     Se( 1.00)

     Starting magnetic structure 
     atomic species   magnetization
        Cd           0.100
        Se           0.000

     No symmetry found



   Cartesian axes

     site n.     atom                  positions (alat units)
         1           Cd  tau(   1) = (   0.0070120   2.6763536   8.8041225  )
         2           Cd  tau(   2) = (   2.3361262   1.3644972   4.5666608  )
         3           Se  tau(   3) = (  -0.0019064   2.7048238   2.8933552  )
         4           Se  tau(   4) = (   2.3406702   1.3478730   7.0994108  )

     number of k points=     1  gaussian smearing, width (Ry)=  0.0050
                       cart. coord. in units 2pi/alat
        k(    1) = (   0.0000000   0.0000000   0.0000000), wk =   1.0000000

     Dense  grid:    37187 G-vectors     FFT dimensions: (  36,  36,  72)

     Estimated max dynamical RAM per process >      40.32 MB

     Estimated total dynamical RAM >     161.26 MB
     Generating pointlists ...
     new r_m :   0.4125 (alat units)  0.7796 (a.u.) for type    1
     new r_m :   0.4125 (alat units)  0.7796 (a.u.) for type    2

     Initial potential from superposition of free atoms

     starting charge   55.99008, renormalised to   56.00000

     negative rho (up, down):  1.794E-06 9.815E-07
     Starting wfc are   36 randomized atomic wfcs +    4 random wfc

     total cpu time spent up to now is        3.4 secs

     Self-consistent Calculation

     iteration #  1     ecut=    40.00 Ry     beta= 0.45
     Davidson diagonalization with overlap
     ethr =  1.00E-02,  avg # of iterations =  7.0

     Threshold (ethr) on eigenvalues was too large:
     Diagonalizing with lowered threshold

     Davidson diagonalization with overlap
     ethr =  5.12E-04,  avg # of iterations =  1.0

     negative rho (up, down):  1.110E-05 3.157E-05

     total cpu time spent up to now is        4.4 secs

     total energy              =    -717.12538297 Ry
     Harris-Foulkes estimate   =    -717.23591925 Ry
     estimated scf accuracy    <       0.28182690 Ry

     total magnetization       =     1.45 Bohr mag/cell
     absolute magnetization    =     1.45 Bohr mag/cell

     iteration #  2     ecut=    40.00 Ry     beta= 0.45
     Davidson diagonalization with overlap
     ethr =  5.03E-04,  avg # of iterations =  2.0

     negative rho (up, down):  2.084E-05 3.439E-05

     total cpu time spent up to now is        5.0 secs

     total energy              =    -717.17715949 Ry
     Harris-Foulkes estimate   =    -717.21593440 Ry
     estimated scf accuracy    <       0.13047416 Ry

     total magnetization       =     1.67 Bohr mag/cell
     absolute magnetization    =     1.68 Bohr mag/cell

     iteration #  3     ecut=    40.00 Ry     beta= 0.45
     Davidson diagonalization with overlap
     ethr =  2.33E-04,  avg # of iterations =  8.5

     negative rho (up, down):  2.492E-05 3.928E-05

     total cpu time spent up to now is        5.6 secs

     total energy              =    -717.18756006 Ry
     Harris-Foulkes estimate   =    -717.30758687 Ry
     estimated scf accuracy    <       0.99992488 Ry

     total magnetization       =     1.98 Bohr mag/cell
     absolute magnetization    =     2.00 Bohr mag/cell

     iteration #  4     ecut=    40.00 Ry     beta= 0.45
     Davidson diagonalization with overlap
     ethr =  2.33E-04,  avg # of iterations =  2.0

     negative rho (up, down):  4.285E-05 6.083E-05

     total cpu time spent up to now is        6.2 secs

     total energy              =    -717.23217176 Ry
     Harris-Foulkes estimate   =    -717.22176377 Ry
     estimated scf accuracy    <       0.01096962 Ry

     total magnetization       =     2.00 Bohr mag/cell
     absolute magnetization    =     2.02 Bohr mag/cell

     iteration #  5     ecut=    40.00 Ry     beta= 0.45
     Davidson diagonalization with overlap
     ethr =  1.96E-05,  avg # of iterations =  7.5

     negative rho (up, down):  7.568E-05 9.847E-05

     total cpu time spent up to now is        6.8 secs

     total energy              =    -717.23622136 Ry
     Harris-Foulkes estimate   =    -717.23395142 Ry
     estimated scf accuracy    <       0.02050919 Ry

     total magnetization       =     2.00 Bohr mag/cell
     absolute magnetization    =     2.04 Bohr mag/cell

     iteration #  6     ecut=    40.00 Ry     beta= 0.45
     Davidson diagonalization with overlap
     ethr =  1.96E-05,  avg # of iterations =  1.5

     negative rho (up, down):  8.369E-05 1.102E-04

     total cpu time spent up to now is        7.4 secs

     total energy              =    -717.23751524 Ry
     Harris-Foulkes estimate   =    -717.24028361 Ry
     estimated scf accuracy    <       0.05411650 Ry

     total magnetization       =     2.00 Bohr mag/cell
     absolute magnetization    =     2.07 Bohr mag/cell

     iteration #  7     ecut=    40.00 Ry     beta= 0.45
     Davidson diagonalization with overlap
     ethr =  1.96E-05,  avg # of iterations =  1.0

     negative rho (up, down):  7.852E-05 1.098E-04

     total cpu time spent up to now is        7.9 secs

     total energy              =    -717.23913507 Ry
     Harris-Foulkes estimate   =    -717.23915658 Ry
     estimated scf accuracy    <       0.00026879 Ry

     total magnetization       =     2.00 Bohr mag/cell
     absolute magnetization    =     2.08 Bohr mag/cell

     iteration #  8     ecut=    40.00 Ry     beta= 0.45
     Davidson diagonalization with overlap
     ethr =  4.80E-07,  avg # of iterations =  9.5

     negative rho (up, down):  7.692E-05 1.096E-04

     total cpu time spent up to now is        8.5 secs

     total energy              =    -717.23916857 Ry
     Harris-Foulkes estimate   =    -717.23920349 Ry
     estimated scf accuracy    <       0.00063086 Ry

     total magnetization       =     2.00 Bohr mag/cell
     absolute magnetization    =     2.09 Bohr mag/cell

     iteration #  9     ecut=    40.00 Ry     beta= 0.45
     Davidson diagonalization with overlap
     ethr =  4.80E-07,  avg # of iterations =  1.0

     negative rho (up, down):  7.542E-05 1.097E-04

     total cpu time spent up to now is        9.1 secs

     total energy              =    -717.23919630 Ry
     Harris-Foulkes estimate   =    -717.23920027 Ry
     estimated scf accuracy    <       0.00009429 Ry

     total magnetization       =     2.00 Bohr mag/cell
     absolute magnetization    =     2.09 Bohr mag/cell

     iteration # 10     ecut=    40.00 Ry     beta= 0.45
     Davidson diagonalization with overlap
     ethr =  1.68E-07,  avg # of iterations =  1.0

     negative rho (up, down):  7.525E-05 1.102E-04

     total cpu time spent up to now is        9.6 secs

     total energy              =    -717.23920356 Ry
     Harris-Foulkes estimate   =    -717.23920521 Ry
     estimated scf accuracy    <       0.00006575 Ry

     total magnetization       =     2.00 Bohr mag/cell
     absolute magnetization    =     2.09 Bohr mag/cell

     iteration # 11     ecut=    40.00 Ry     beta= 0.45
     Davidson diagonalization with overlap
     ethr =  1.17E-07,  avg # of iterations =  1.0

     negative rho (up, down):  7.498E-05 1.104E-04

     Magnetic moment per site:
     atom:    1    charge:    2.2821    magn:    0.0083    constr:    0.0000
     atom:    2    charge:    2.2787    magn:    0.0085    constr:    0.0000
     atom:    3    charge:    8.0268    magn:    0.0267    constr:    0.0000
     atom:    4    charge:    8.0197    magn:    0.0274    constr:    0.0000

     total cpu time spent up to now is       10.1 secs

     End of self-consistent calculation

 ------ SPIN UP ------------


          k = 0.0000 0.0000 0.0000 (  4621 PWs)   bands (ev):

   -43.9343 -43.9256 -43.9192 -43.8935 -43.8900 -43.8856 -43.8837 -43.8801
   -43.8466 -43.8412  -9.3773  -9.2176  -4.9521  -4.9116  -4.9011  -4.8489
    -4.8444  -4.8121  -4.7926  -4.7896  -4.7881  -4.7840  -1.2182   1.3981
     1.6395   1.6962   2.0637   2.0804   2.1484   4.9693   7.9255   8.2088
     8.2523   8.4717   9.2064   9.2298   9.9950  10.8893  11.0230  11.9435

 ------ SPIN DOWN ----------


          k = 0.0000 0.0000 0.0000 (  4621 PWs)   bands (ev):

   -43.8408 -43.8143 -43.8089 -43.8017 -43.7816 -43.7773 -43.7260 -43.7218
   -43.6914 -43.6861  -8.6514  -8.4713  -4.9226  -4.8612  -4.8543  -4.8103
    -4.8075  -4.7916  -4.7897  -4.7879  -4.7843  -4.7695  -1.0619   1.6709
     2.2656   2.5592   2.6204   3.0474   3.0647   5.0965   8.0785   8.3238
     8.3678   8.6386   9.4234   9.4531  10.0260  11.1780  11.3103  12.0065

     the Fermi energy is     2.8331 ev

!    total energy              =    -717.23920116 Ry
     Harris-Foulkes estimate   =    -717.23920485 Ry
     estimated scf accuracy    <       0.00000479 Ry

     The total energy is the sum of the following terms:

     one-electron contribution =    -608.96335999 Ry
     hartree contribution      =     323.73329994 Ry
     xc contribution           =    -102.43052976 Ry
     ewald contribution        =    -329.57861119 Ry
     smearing contrib. (-TS)   =      -0.00000016 Ry

     total magnetization       =     2.00 Bohr mag/cell
     absolute magnetization    =     2.09 Bohr mag/cell

     convergence has been achieved in  11 iterations

     Writing output data file x0.save

     init_run     :      1.95s CPU      2.01s WALL (       1 calls)
     electrons    :      6.52s CPU      6.78s WALL (       1 calls)

     Called by init_run:
     wfcinit      :      0.07s CPU      0.07s WALL (       1 calls)
     potinit      :      0.54s CPU      0.55s WALL (       1 calls)

     Called by electrons:
     c_bands      :      2.20s CPU      2.33s WALL (      12 calls)
     sum_band     :      2.55s CPU      2.60s WALL (      12 calls)
     v_of_rho     :      0.73s CPU      0.74s WALL (      12 calls)
     newd         :      1.12s CPU      1.14s WALL (      12 calls)
     mix_rho      :      0.06s CPU      0.06s WALL (      12 calls)

     Called by c_bands:
     init_us_2    :      0.05s CPU      0.05s WALL (      50 calls)
     cegterg      :      2.10s CPU      2.22s WALL (      24 calls)

     Called by sum_band:
     sum_band:bec :      0.00s CPU      0.00s WALL (      24 calls)
     addusdens    :      2.19s CPU      2.21s WALL (      12 calls)

     Called by *egterg:
     h_psi        :      1.47s CPU      1.58s WALL (     112 calls)
     s_psi        :      0.05s CPU      0.05s WALL (     112 calls)
     g_psi        :      0.01s CPU      0.01s WALL (      86 calls)
     cdiaghg      :      0.33s CPU      0.34s WALL (     108 calls)

     Called by h_psi:
     h_psi:pot    :      1.46s CPU      1.57s WALL (     112 calls)
     h_psi:calbec :      0.06s CPU      0.06s WALL (     112 calls)
     vloc_psi     :      1.35s CPU      1.45s WALL (     112 calls)
     add_vuspsi   :      0.05s CPU      0.05s WALL (     112 calls)

     General routines
     calbec       :      0.08s CPU      0.09s WALL (     136 calls)
     fft          :      0.15s CPU      0.18s WALL (     302 calls)
     fftw         :      1.46s CPU      1.57s WALL (    5396 calls)

     Parallel routines
     fft_scatt_xy :      0.18s CPU      0.20s WALL (    5698 calls)
     fft_scatt_yz :      0.32s CPU      0.37s WALL (    5698 calls)

     PWSCF        :     9.81s CPU        10.58s WALL


   This run was terminated on:  15: 7:28  12Jul2022            

=------------------------------------------------------------------------------=
   JOB DONE.
=------------------------------------------------------------------------------=
