
     Program PWSCF v.6.2 (svn rev. 14038) starts on 12Jul2022 at 15: 7:10 

     This program is part of the open-source Quantum ESPRESSO suite
     for quantum simulation of materials; please cite
         "P. Giannozzi et al., J. Phys.:Condens. Matter 21 395502 (2009);
         "P. Giannozzi et al., J. Phys.:Condens. Matter 29 465901 (2017);
          URL http://www.quantum-espresso.org", 
     in publications or presentations arising from this work. More details at
     http://www.quantum-espresso.org/quote

     Parallel version (MPI), running on     4 processors

     MPI processes distributed on     1 nodes
     R & G space division:  proc/nbgrp/npool/nimage =       4
     Waiting for input...
     Reading input from standard input
Warning: card &IONS ignored
Warning: card   ION_DYNAMICS = 'VERLET', ignored
Warning: card   ION_TEMPERATURE = 'ANDERSEN', ignored
Warning: card   TEMPW = 300.00 , ignored
Warning: card   NRAISE = 1, ignored
Warning: card / ignored

     Current dimensions of program PWSCF are:
     Max number of different atomic species (ntypx) = 10
     Max number of k-points (npk) =  40000
     Max angular momentum in pseudopotentials (lmaxx) =  3
               file Cd.pbe-n-rrkjus_psl.1.0.0.UPF: wavefunction(s)  4D renormalized

     Subspace diagonalization in iterative solution of the eigenvalue problem:
     a serial algorithm will be used


     Parallelization info
     --------------------
     sticks:   dense  smooth     PW     G-vecs:    dense   smooth      PW
     Min         215     215     52                 9295     9295    1151
     Max         216     216     53                 9298     9298    1158
     Sum         863     863    211                37187    37187    4621



     bravais-lattice index     =            0
     lattice parameter (alat)  =       1.8900  a.u.
     unit-cell volume          =    1089.4295 (a.u.)^3
     number of atoms/cell      =            4
     number of atomic types    =            2
     number of electrons       =        56.00
     number of Kohn-Sham states=           40
     kinetic-energy cutoff     =      40.0000  Ry
     charge density cutoff     =     160.0000  Ry
     convergence threshold     =      1.0E-05
     mixing beta               =       0.4500
     number of iterations used =            8  plain     mixing
     Exchange-correlation      = PBE ( 1  4  3  4 0 0)

     celldm(1)=   1.890000  celldm(2)=   0.000000  celldm(3)=   0.000000
     celldm(4)=   0.000000  celldm(5)=   0.000000  celldm(6)=   0.000000

     crystal axes: (cart. coord. in units of alat)
               a(1) = (   4.716987  -0.015513  -0.002401 )  
               a(2) = (  -2.371927   4.062830  -0.000274 )  
               a(3) = (  -0.002553  -0.001388   8.436361 )  

     reciprocal axes: (cart. coord. in units 2 pi/alat)
               b(1) = (  0.212408  0.124006  0.000085 )  
               b(2) = (  0.000811  0.246607  0.000041 )  
               b(3) = (  0.000060  0.000043  0.118535 )  


     PseudoPot. # 1 for Cd read from file:
     /projects/academic/cyberwksp21/Students/jstetzler/QE_examples/Tutorials_QE_and_eQE/6_nac_workflow/step2b/PP/Cd.pbe-n-rrkjus_psl.1.0.0.UPF
     MD5 check sum: a744746c89d2344a134ead0d8ab94e7a
     Pseudo is Ultrasoft + core correction, Zval = 12.0
     Generated using "atomic" code by A. Dal Corso v.6.3
     Using radial grid of 1239 points,  6 beta functions with: 
                l(1) =   0
                l(2) =   0
                l(3) =   1
                l(4) =   1
                l(5) =   2
                l(6) =   2
     Q(r) pseudized with 0 coefficients 


     PseudoPot. # 2 for Se read from file:
     /projects/academic/cyberwksp21/Students/jstetzler/QE_examples/Tutorials_QE_and_eQE/6_nac_workflow/step2b/PP/Se.pbe-dn-rrkjus_psl.1.0.0.UPF
     MD5 check sum: 497c2ee764913186385bad8d0f9c7a86
     Pseudo is Ultrasoft + core correction, Zval = 16.0
     Generated using "atomic" code by A. Dal Corso v.6.3
     Using radial grid of 1211 points,  6 beta functions with: 
                l(1) =   0
                l(2) =   0
                l(3) =   1
                l(4) =   1
                l(5) =   2
                l(6) =   2
     Q(r) pseudized with 0 coefficients 


     atomic species   valence    mass     pseudopotential
        Cd            12.00   121.41100     Cd( 1.00)
        Se            16.00    78.96000     Se( 1.00)

     Starting magnetic structure 
     atomic species   magnetization
        Cd           0.100
        Se           0.000

     No symmetry found



   Cartesian axes

     site n.     atom                  positions (alat units)
         1           Cd  tau(   1) = (   0.0091769   2.6802559   8.7990244  )
         2           Cd  tau(   2) = (   2.3348904   1.3673959   4.5748085  )
         3           Se  tau(   3) = (  -0.0055070   2.6976659   2.8874928  )
         4           Se  tau(   4) = (   2.3428422   1.3445734   7.1005841  )

     number of k points=     1  gaussian smearing, width (Ry)=  0.0050
                       cart. coord. in units 2pi/alat
        k(    1) = (   0.0000000   0.0000000   0.0000000), wk =   1.0000000

     Dense  grid:    37187 G-vectors     FFT dimensions: (  36,  36,  72)

     Estimated max dynamical RAM per process >      40.32 MB

     Estimated total dynamical RAM >     161.26 MB
     Generating pointlists ...
     new r_m :   0.4125 (alat units)  0.7796 (a.u.) for type    1
     new r_m :   0.4125 (alat units)  0.7796 (a.u.) for type    2

     Initial potential from superposition of free atoms

     starting charge   55.99008, renormalised to   56.00000

     negative rho (up, down):  1.808E-06 9.894E-07
     Starting wfc are   36 randomized atomic wfcs +    4 random wfc

     total cpu time spent up to now is        3.7 secs

     Self-consistent Calculation

     iteration #  1     ecut=    40.00 Ry     beta= 0.45
     Davidson diagonalization with overlap
     ethr =  1.00E-02,  avg # of iterations =  7.0

     Threshold (ethr) on eigenvalues was too large:
     Diagonalizing with lowered threshold

     Davidson diagonalization with overlap
     ethr =  5.12E-04,  avg # of iterations =  1.0

     negative rho (up, down):  9.932E-06 2.942E-05

     total cpu time spent up to now is        4.7 secs

     total energy              =    -717.12538692 Ry
     Harris-Foulkes estimate   =    -717.23617964 Ry
     estimated scf accuracy    <       0.28228142 Ry

     total magnetization       =     1.45 Bohr mag/cell
     absolute magnetization    =     1.45 Bohr mag/cell

     iteration #  2     ecut=    40.00 Ry     beta= 0.45
     Davidson diagonalization with overlap
     ethr =  5.04E-04,  avg # of iterations =  2.0

     negative rho (up, down):  2.258E-05 3.633E-05

     total cpu time spent up to now is        5.3 secs

     total energy              =    -717.20521279 Ry
     Harris-Foulkes estimate   =    -717.21426850 Ry
     estimated scf accuracy    <       0.06347973 Ry

     total magnetization       =     1.68 Bohr mag/cell
     absolute magnetization    =     1.69 Bohr mag/cell

     iteration #  3     ecut=    40.00 Ry     beta= 0.45
     Davidson diagonalization with overlap
     ethr =  1.13E-04,  avg # of iterations =  4.5

     negative rho (up, down):  2.419E-05 3.870E-05

     total cpu time spent up to now is        5.9 secs

     total energy              =    -717.19551605 Ry
     Harris-Foulkes estimate   =    -717.23499006 Ry
     estimated scf accuracy    <       0.41341620 Ry

     total magnetization       =     2.00 Bohr mag/cell
     absolute magnetization    =     2.02 Bohr mag/cell

     iteration #  4     ecut=    40.00 Ry     beta= 0.45
     Davidson diagonalization with overlap
     ethr =  1.13E-04,  avg # of iterations =  1.5

     negative rho (up, down):  4.231E-05 5.939E-05

     total cpu time spent up to now is        6.4 secs

     total energy              =    -717.22633548 Ry
     Harris-Foulkes estimate   =    -717.22723056 Ry
     estimated scf accuracy    <       0.19982151 Ry

     total magnetization       =     2.00 Bohr mag/cell
     absolute magnetization    =     2.02 Bohr mag/cell

     iteration #  5     ecut=    40.00 Ry     beta= 0.45
     Davidson diagonalization with overlap
     ethr =  1.13E-04,  avg # of iterations =  1.0

     negative rho (up, down):  8.388E-05 1.093E-04

     total cpu time spent up to now is        6.9 secs

     total energy              =    -717.23813347 Ry
     Harris-Foulkes estimate   =    -717.23306049 Ry
     estimated scf accuracy    <       0.00545534 Ry

     total magnetization       =     2.00 Bohr mag/cell
     absolute magnetization    =     2.03 Bohr mag/cell

     iteration #  6     ecut=    40.00 Ry     beta= 0.45
     Davidson diagonalization with overlap
     ethr =  9.74E-06,  avg # of iterations =  2.5

     negative rho (up, down):  8.244E-05 1.112E-04

     total cpu time spent up to now is        7.5 secs

     total energy              =    -717.23910736 Ry
     Harris-Foulkes estimate   =    -717.23921440 Ry
     estimated scf accuracy    <       0.00190864 Ry

     total magnetization       =     2.00 Bohr mag/cell
     absolute magnetization    =     2.08 Bohr mag/cell

     iteration #  7     ecut=    40.00 Ry     beta= 0.45
     Davidson diagonalization with overlap
     c_bands:  1 eigenvalues not converged
     ethr =  3.41E-06,  avg # of iterations = 19.0

     negative rho (up, down):  7.949E-05 1.107E-04

     total cpu time spent up to now is        8.2 secs

     total energy              =    -717.23922729 Ry
     Harris-Foulkes estimate   =    -717.23922942 Ry
     estimated scf accuracy    <       0.00022516 Ry

     total magnetization       =     2.00 Bohr mag/cell
     absolute magnetization    =     2.09 Bohr mag/cell

     iteration #  8     ecut=    40.00 Ry     beta= 0.45
     Davidson diagonalization with overlap
     ethr =  4.02E-07,  avg # of iterations =  7.5

     negative rho (up, down):  7.675E-05 1.103E-04

     total cpu time spent up to now is        8.8 secs

     total energy              =    -717.23924167 Ry
     Harris-Foulkes estimate   =    -717.23923894 Ry
     estimated scf accuracy    <       0.00004189 Ry

     total magnetization       =     2.00 Bohr mag/cell
     absolute magnetization    =     2.09 Bohr mag/cell

     iteration #  9     ecut=    40.00 Ry     beta= 0.45
     Davidson diagonalization with overlap
     ethr =  7.48E-08,  avg # of iterations =  1.5

     negative rho (up, down):  7.581E-05 1.108E-04

     total cpu time spent up to now is        9.4 secs

     total energy              =    -717.23924766 Ry
     Harris-Foulkes estimate   =    -717.23924640 Ry
     estimated scf accuracy    <       0.00001863 Ry

     total magnetization       =     2.00 Bohr mag/cell
     absolute magnetization    =     2.09 Bohr mag/cell

     iteration # 10     ecut=    40.00 Ry     beta= 0.45
     Davidson diagonalization with overlap
     ethr =  3.33E-08,  avg # of iterations =  2.0

     negative rho (up, down):  7.543E-05 1.114E-04

     Magnetic moment per site:
     atom:    1    charge:    2.2807    magn:    0.0084    constr:    0.0000
     atom:    2    charge:    2.2803    magn:    0.0085    constr:    0.0000
     atom:    3    charge:    8.0222    magn:    0.0269    constr:    0.0000
     atom:    4    charge:    8.0185    magn:    0.0271    constr:    0.0000

     total cpu time spent up to now is        9.9 secs

     End of self-consistent calculation

 ------ SPIN UP ------------


          k = 0.0000 0.0000 0.0000 (  4621 PWs)   bands (ev):

   -43.9278 -43.9142 -43.9109 -43.9001 -43.8991 -43.8950 -43.8735 -43.8689
   -43.8566 -43.8514  -9.3803  -9.2208  -4.9548  -4.9144  -4.9034  -4.8512
    -4.8465  -4.8156  -4.7951  -4.7920  -4.7903  -4.7855  -1.2218   1.3918
     1.6395   1.6969   2.0647   2.0810   2.1509   4.9746   7.9262   8.2105
     8.2514   8.4790   9.2145   9.2277   9.9945  10.8871  11.0213  11.9442

 ------ SPIN DOWN ----------


          k = 0.0000 0.0000 0.0000 (  4621 PWs)   bands (ev):

   -43.8352 -43.8075 -43.8043 -43.8011 -43.7901 -43.7857 -43.7167 -43.7120
   -43.7003 -43.6951  -8.6558  -8.4755  -4.9245  -4.8639  -4.8566  -4.8122
    -4.8094  -4.7939  -4.7918  -4.7900  -4.7855  -4.7722  -1.0652   1.6645
     2.2685   2.5585   2.6197   3.0476   3.0646   5.1019   8.0792   8.3259
     8.3669   8.6467   9.4303   9.4522  10.0254  11.1759  11.3089  12.0082

     the Fermi energy is     2.8328 ev

!    total energy              =    -717.23924893 Ry
     Harris-Foulkes estimate   =    -717.23924896 Ry
     estimated scf accuracy    <       0.00000053 Ry

     The total energy is the sum of the following terms:

     one-electron contribution =    -609.05657181 Ry
     hartree contribution      =     323.77520597 Ry
     xc contribution           =    -102.43093987 Ry
     ewald contribution        =    -329.52694306 Ry
     smearing contrib. (-TS)   =      -0.00000016 Ry

     total magnetization       =     2.00 Bohr mag/cell
     absolute magnetization    =     2.09 Bohr mag/cell

     convergence has been achieved in  10 iterations

     Writing output data file x0.save

     init_run     :      1.98s CPU      2.10s WALL (       1 calls)
     electrons    :      6.08s CPU      6.30s WALL (       1 calls)

     Called by init_run:
     wfcinit      :      0.06s CPU      0.07s WALL (       1 calls)
     potinit      :      0.54s CPU      0.55s WALL (       1 calls)

     Called by electrons:
     c_bands      :      2.13s CPU      2.25s WALL (      11 calls)
     sum_band     :      2.35s CPU      2.39s WALL (      11 calls)
     v_of_rho     :      0.67s CPU      0.68s WALL (      11 calls)
     newd         :      1.02s CPU      1.04s WALL (      11 calls)
     mix_rho      :      0.05s CPU      0.05s WALL (      11 calls)

     Called by c_bands:
     init_us_2    :      0.04s CPU      0.04s WALL (      46 calls)
     cegterg      :      2.04s CPU      2.14s WALL (      22 calls)

     Called by sum_band:
     sum_band:bec :      0.00s CPU      0.00s WALL (      22 calls)
     addusdens    :      2.02s CPU      2.03s WALL (      11 calls)

     Called by *egterg:
     h_psi        :      1.38s CPU      1.48s WALL (     123 calls)
     s_psi        :      0.05s CPU      0.05s WALL (     123 calls)
     g_psi        :      0.01s CPU      0.01s WALL (      99 calls)
     cdiaghg      :      0.37s CPU      0.38s WALL (     119 calls)

     Called by h_psi:
     h_psi:pot    :      1.37s CPU      1.46s WALL (     123 calls)
     h_psi:calbec :      0.06s CPU      0.06s WALL (     123 calls)
     vloc_psi     :      1.26s CPU      1.35s WALL (     123 calls)
     add_vuspsi   :      0.05s CPU      0.05s WALL (     123 calls)

     General routines
     calbec       :      0.08s CPU      0.08s WALL (     145 calls)
     fft          :      0.16s CPU      0.21s WALL (     277 calls)
     fftw         :      1.36s CPU      1.46s WALL (    5006 calls)

     Parallel routines
     fft_scatt_xy :      0.17s CPU      0.18s WALL (    5283 calls)
     fft_scatt_yz :      0.33s CPU      0.40s WALL (    5283 calls)

     PWSCF        :     9.48s CPU        10.38s WALL


   This run was terminated on:  15: 7:20  12Jul2022            

=------------------------------------------------------------------------------=
   JOB DONE.
=------------------------------------------------------------------------------=
