
     Program PWSCF v.6.2 (svn rev. 14038) starts on 12Jul2022 at 15: 5:27 

     This program is part of the open-source Quantum ESPRESSO suite
     for quantum simulation of materials; please cite
         "P. Giannozzi et al., J. Phys.:Condens. Matter 21 395502 (2009);
         "P. Giannozzi et al., J. Phys.:Condens. Matter 29 465901 (2017);
          URL http://www.quantum-espresso.org", 
     in publications or presentations arising from this work. More details at
     http://www.quantum-espresso.org/quote

     Parallel version (MPI), running on     4 processors

     MPI processes distributed on     1 nodes
     R & G space division:  proc/nbgrp/npool/nimage =       4
     Waiting for input...
     Reading input from standard input
Warning: card &IONS ignored
Warning: card   ION_DYNAMICS = 'VERLET', ignored
Warning: card   ION_TEMPERATURE = 'ANDERSEN', ignored
Warning: card   TEMPW = 300.00 , ignored
Warning: card   NRAISE = 1, ignored
Warning: card / ignored

     Current dimensions of program PWSCF are:
     Max number of different atomic species (ntypx) = 10
     Max number of k-points (npk) =  40000
     Max angular momentum in pseudopotentials (lmaxx) =  3
               file Cd.pbe-n-rrkjus_psl.1.0.0.UPF: wavefunction(s)  4D renormalized

     Subspace diagonalization in iterative solution of the eigenvalue problem:
     a serial algorithm will be used


     Parallelization info
     --------------------
     sticks:   dense  smooth     PW     G-vecs:    dense   smooth      PW
     Min         215     215     52                 9295     9295    1151
     Max         216     216     53                 9298     9298    1158
     Sum         863     863    211                37187    37187    4621



     bravais-lattice index     =            0
     lattice parameter (alat)  =       1.8900  a.u.
     unit-cell volume          =    1089.4295 (a.u.)^3
     number of atoms/cell      =            4
     number of atomic types    =            2
     number of electrons       =        56.00
     number of Kohn-Sham states=           40
     kinetic-energy cutoff     =      40.0000  Ry
     charge density cutoff     =     160.0000  Ry
     convergence threshold     =      1.0E-05
     mixing beta               =       0.4500
     number of iterations used =            8  plain     mixing
     Exchange-correlation      = PBE ( 1  4  3  4 0 0)

     celldm(1)=   1.890000  celldm(2)=   0.000000  celldm(3)=   0.000000
     celldm(4)=   0.000000  celldm(5)=   0.000000  celldm(6)=   0.000000

     crystal axes: (cart. coord. in units of alat)
               a(1) = (   4.716987  -0.015513  -0.002401 )  
               a(2) = (  -2.371927   4.062830  -0.000274 )  
               a(3) = (  -0.002553  -0.001388   8.436361 )  

     reciprocal axes: (cart. coord. in units 2 pi/alat)
               b(1) = (  0.212408  0.124006  0.000085 )  
               b(2) = (  0.000811  0.246607  0.000041 )  
               b(3) = (  0.000060  0.000043  0.118535 )  


     PseudoPot. # 1 for Cd read from file:
     /projects/academic/cyberwksp21/Students/jstetzler/QE_examples/Tutorials_QE_and_eQE/6_nac_workflow/step2b/PP/Cd.pbe-n-rrkjus_psl.1.0.0.UPF
     MD5 check sum: a744746c89d2344a134ead0d8ab94e7a
     Pseudo is Ultrasoft + core correction, Zval = 12.0
     Generated using "atomic" code by A. Dal Corso v.6.3
     Using radial grid of 1239 points,  6 beta functions with: 
                l(1) =   0
                l(2) =   0
                l(3) =   1
                l(4) =   1
                l(5) =   2
                l(6) =   2
     Q(r) pseudized with 0 coefficients 


     PseudoPot. # 2 for Se read from file:
     /projects/academic/cyberwksp21/Students/jstetzler/QE_examples/Tutorials_QE_and_eQE/6_nac_workflow/step2b/PP/Se.pbe-dn-rrkjus_psl.1.0.0.UPF
     MD5 check sum: 497c2ee764913186385bad8d0f9c7a86
     Pseudo is Ultrasoft + core correction, Zval = 16.0
     Generated using "atomic" code by A. Dal Corso v.6.3
     Using radial grid of 1211 points,  6 beta functions with: 
                l(1) =   0
                l(2) =   0
                l(3) =   1
                l(4) =   1
                l(5) =   2
                l(6) =   2
     Q(r) pseudized with 0 coefficients 


     atomic species   valence    mass     pseudopotential
        Cd            12.00   121.41100     Cd( 1.00)
        Se            16.00    78.96000     Se( 1.00)

     Starting magnetic structure 
     atomic species   magnetization
        Cd           0.100
        Se           0.000

     No symmetry found



   Cartesian axes

     site n.     atom                  positions (alat units)
         1           Cd  tau(   1) = (   0.0018600   2.6789732   8.7955825  )
         2           Cd  tau(   2) = (   2.3373802   1.3680200   4.5765922  )
         3           Se  tau(   3) = (  -0.0032008   2.7027882   2.8868060  )
         4           Se  tau(   4) = (   2.3479583   1.3404637   7.1038206  )

     number of k points=     1  gaussian smearing, width (Ry)=  0.0050
                       cart. coord. in units 2pi/alat
        k(    1) = (   0.0000000   0.0000000   0.0000000), wk =   1.0000000

     Dense  grid:    37187 G-vectors     FFT dimensions: (  36,  36,  72)

     Estimated max dynamical RAM per process >      40.32 MB

     Estimated total dynamical RAM >     161.26 MB
     Generating pointlists ...
     new r_m :   0.4125 (alat units)  0.7796 (a.u.) for type    1
     new r_m :   0.4125 (alat units)  0.7796 (a.u.) for type    2

     Initial potential from superposition of free atoms

     starting charge   55.99008, renormalised to   56.00000

     negative rho (up, down):  2.389E-06 1.467E-06
     Starting wfc are   36 randomized atomic wfcs +    4 random wfc

     total cpu time spent up to now is        3.6 secs

     Self-consistent Calculation

     iteration #  1     ecut=    40.00 Ry     beta= 0.45
     Davidson diagonalization with overlap
     ethr =  1.00E-02,  avg # of iterations =  7.0

     Threshold (ethr) on eigenvalues was too large:
     Diagonalizing with lowered threshold

     Davidson diagonalization with overlap
     ethr =  5.11E-04,  avg # of iterations =  1.0

     negative rho (up, down):  9.965E-06 3.246E-05

     total cpu time spent up to now is        4.7 secs

     total energy              =    -717.12559611 Ry
     Harris-Foulkes estimate   =    -717.23610057 Ry
     estimated scf accuracy    <       0.28178951 Ry

     total magnetization       =     1.45 Bohr mag/cell
     absolute magnetization    =     1.45 Bohr mag/cell

     iteration #  2     ecut=    40.00 Ry     beta= 0.45
     Davidson diagonalization with overlap
     ethr =  5.03E-04,  avg # of iterations =  2.0

     negative rho (up, down):  2.372E-05 3.862E-05

     total cpu time spent up to now is        5.2 secs

     total energy              =    -717.20791091 Ry
     Harris-Foulkes estimate   =    -717.21411629 Ry
     estimated scf accuracy    <       0.05785512 Ry

     total magnetization       =     1.68 Bohr mag/cell
     absolute magnetization    =     1.69 Bohr mag/cell

     iteration #  3     ecut=    40.00 Ry     beta= 0.45
     Davidson diagonalization with overlap
     ethr =  1.03E-04,  avg # of iterations =  4.0

     negative rho (up, down):  3.846E-05 5.353E-05

     total cpu time spent up to now is        5.8 secs

     total energy              =    -717.22688892 Ry
     Harris-Foulkes estimate   =    -717.21971186 Ry
     estimated scf accuracy    <       0.01596713 Ry

     total magnetization       =     2.00 Bohr mag/cell
     absolute magnetization    =     2.01 Bohr mag/cell

     iteration #  4     ecut=    40.00 Ry     beta= 0.45
     Davidson diagonalization with overlap
     ethr =  2.85E-05,  avg # of iterations =  9.5

     negative rho (up, down):  4.451E-05 6.006E-05

     total cpu time spent up to now is        6.5 secs

     total energy              =    -717.21845623 Ry
     Harris-Foulkes estimate   =    -717.25101972 Ry
     estimated scf accuracy    <       0.48024734 Ry

     total magnetization       =     2.00 Bohr mag/cell
     absolute magnetization    =     2.03 Bohr mag/cell

     iteration #  5     ecut=    40.00 Ry     beta= 0.45
     Davidson diagonalization with overlap
     ethr =  2.85E-05,  avg # of iterations =  4.0

     negative rho (up, down):  8.582E-05 1.070E-04

     total cpu time spent up to now is        7.1 secs

     total energy              =    -717.23854700 Ry
     Harris-Foulkes estimate   =    -717.23327438 Ry
     estimated scf accuracy    <       0.00362298 Ry

     total magnetization       =     2.00 Bohr mag/cell
     absolute magnetization    =     2.04 Bohr mag/cell

     iteration #  6     ecut=    40.00 Ry     beta= 0.45
     Davidson diagonalization with overlap
     ethr =  6.47E-06,  avg # of iterations =  6.5

     negative rho (up, down):  8.112E-05 1.072E-04

     total cpu time spent up to now is        7.7 secs

     total energy              =    -717.23926184 Ry
     Harris-Foulkes estimate   =    -717.23925750 Ry
     estimated scf accuracy    <       0.00015605 Ry

     total magnetization       =     2.00 Bohr mag/cell
     absolute magnetization    =     2.08 Bohr mag/cell

     iteration #  7     ecut=    40.00 Ry     beta= 0.45
     Davidson diagonalization with overlap
     ethr =  2.79E-07,  avg # of iterations =  2.5

     negative rho (up, down):  7.808E-05 1.077E-04

     total cpu time spent up to now is        8.3 secs

     total energy              =    -717.23931162 Ry
     Harris-Foulkes estimate   =    -717.23929505 Ry
     estimated scf accuracy    <       0.00001255 Ry

     total magnetization       =     2.00 Bohr mag/cell
     absolute magnetization    =     2.09 Bohr mag/cell

     iteration #  8     ecut=    40.00 Ry     beta= 0.45
     Davidson diagonalization with overlap
     ethr =  2.24E-08,  avg # of iterations =  3.0

     negative rho (up, down):  7.579E-05 1.086E-04

     Magnetic moment per site:
     atom:    1    charge:    2.2792    magn:    0.0084    constr:    0.0000
     atom:    2    charge:    2.2800    magn:    0.0084    constr:    0.0000
     atom:    3    charge:    8.0214    magn:    0.0270    constr:    0.0000
     atom:    4    charge:    8.0197    magn:    0.0271    constr:    0.0000

     total cpu time spent up to now is        8.8 secs

     End of self-consistent calculation

 ------ SPIN UP ------------


          k = 0.0000 0.0000 0.0000 (  4621 PWs)   bands (ev):

   -43.9229 -43.9092 -43.9047 -43.8974 -43.8964 -43.8928 -43.8683 -43.8633
   -43.8542 -43.8497  -9.3741  -9.2146  -4.9526  -4.9107  -4.9025  -4.8485
    -4.8452  -4.8128  -4.7936  -4.7906  -4.7873  -4.7840  -1.2203   1.3965
     1.6478   1.6967   2.0687   2.0851   2.1480   4.9707   7.9247   8.2099
     8.2484   8.4742   9.2097   9.2269   9.9933  10.8938  11.0162  11.9439

 ------ SPIN DOWN ----------


          k = 0.0000 0.0000 0.0000 (  4621 PWs)   bands (ev):

   -43.8298 -43.8036 -43.7991 -43.7947 -43.7873 -43.7829 -43.7118 -43.7066
   -43.6978 -43.6931  -8.6537  -8.4737  -4.9220  -4.8597  -4.8543  -4.8094
    -4.8066  -4.7918  -4.7882  -4.7871  -4.7832  -4.7699  -1.0605   1.6702
     2.2694   2.5607   2.6140   3.0444   3.0623   5.1004   8.0773   8.3303
     8.3691   8.6425   9.4347   9.4465  10.0258  11.1819  11.3038  12.0062

     the Fermi energy is     2.8284 ev

!    total energy              =    -717.23932021 Ry
     Harris-Foulkes estimate   =    -717.23931673 Ry
     estimated scf accuracy    <       0.00000345 Ry

     The total energy is the sum of the following terms:

     one-electron contribution =    -608.99018765 Ry
     hartree contribution      =     323.73977421 Ry
     xc contribution           =    -102.42983882 Ry
     ewald contribution        =    -329.55906781 Ry
     smearing contrib. (-TS)   =      -0.00000014 Ry

     total magnetization       =     2.00 Bohr mag/cell
     absolute magnetization    =     2.09 Bohr mag/cell

     convergence has been achieved in   8 iterations

     Writing output data file x0.save

     init_run     :      2.06s CPU      2.12s WALL (       1 calls)
     electrons    :      5.05s CPU      5.26s WALL (       1 calls)

     Called by init_run:
     wfcinit      :      0.06s CPU      0.07s WALL (       1 calls)
     potinit      :      0.56s CPU      0.56s WALL (       1 calls)

     Called by electrons:
     c_bands      :      1.84s CPU      1.95s WALL (       9 calls)
     sum_band     :      1.93s CPU      1.96s WALL (       9 calls)
     v_of_rho     :      0.55s CPU      0.56s WALL (       9 calls)
     newd         :      0.84s CPU      0.86s WALL (       9 calls)
     mix_rho      :      0.03s CPU      0.03s WALL (       9 calls)

     Called by c_bands:
     init_us_2    :      0.03s CPU      0.03s WALL (      38 calls)
     cegterg      :      1.76s CPU      1.87s WALL (      18 calls)

     Called by sum_band:
     sum_band:bec :      0.00s CPU      0.00s WALL (      18 calls)
     addusdens    :      1.66s CPU      1.67s WALL (       9 calls)

     Called by *egterg:
     h_psi        :      1.20s CPU      1.29s WALL (      99 calls)
     s_psi        :      0.04s CPU      0.04s WALL (      99 calls)
     g_psi        :      0.01s CPU      0.01s WALL (      79 calls)
     cdiaghg      :      0.31s CPU      0.32s WALL (      95 calls)

     Called by h_psi:
     h_psi:pot    :      1.19s CPU      1.28s WALL (      99 calls)
     h_psi:calbec :      0.05s CPU      0.05s WALL (      99 calls)
     vloc_psi     :      1.10s CPU      1.18s WALL (      99 calls)
     add_vuspsi   :      0.04s CPU      0.04s WALL (      99 calls)

     General routines
     calbec       :      0.07s CPU      0.07s WALL (     117 calls)
     fft          :      0.12s CPU      0.12s WALL (     227 calls)
     fftw         :      1.17s CPU      1.27s WALL (    4344 calls)

     Parallel routines
     fft_scatt_xy :      0.14s CPU      0.16s WALL (    4571 calls)
     fft_scatt_yz :      0.25s CPU      0.27s WALL (    4571 calls)

     PWSCF        :     8.56s CPU         9.21s WALL


   This run was terminated on:  15: 5:36  12Jul2022            

=------------------------------------------------------------------------------=
   JOB DONE.
=------------------------------------------------------------------------------=
