
     Program PWSCF v.6.2 (svn rev. 14038) starts on 12Jul2022 at 15: 6:14 

     This program is part of the open-source Quantum ESPRESSO suite
     for quantum simulation of materials; please cite
         "P. Giannozzi et al., J. Phys.:Condens. Matter 21 395502 (2009);
         "P. Giannozzi et al., J. Phys.:Condens. Matter 29 465901 (2017);
          URL http://www.quantum-espresso.org", 
     in publications or presentations arising from this work. More details at
     http://www.quantum-espresso.org/quote

     Parallel version (MPI), running on     4 processors

     MPI processes distributed on     1 nodes
     R & G space division:  proc/nbgrp/npool/nimage =       4
     Waiting for input...
     Reading input from standard input
Warning: card &IONS ignored
Warning: card   ION_DYNAMICS = 'VERLET', ignored
Warning: card   ION_TEMPERATURE = 'ANDERSEN', ignored
Warning: card   TEMPW = 300.00 , ignored
Warning: card   NRAISE = 1, ignored
Warning: card / ignored

     Current dimensions of program PWSCF are:
     Max number of different atomic species (ntypx) = 10
     Max number of k-points (npk) =  40000
     Max angular momentum in pseudopotentials (lmaxx) =  3
               file Cd.pbe-n-rrkjus_psl.1.0.0.UPF: wavefunction(s)  4D renormalized

     Subspace diagonalization in iterative solution of the eigenvalue problem:
     a serial algorithm will be used


     Parallelization info
     --------------------
     sticks:   dense  smooth     PW     G-vecs:    dense   smooth      PW
     Min         215     215     52                 9295     9295    1151
     Max         216     216     53                 9298     9298    1158
     Sum         863     863    211                37187    37187    4621



     bravais-lattice index     =            0
     lattice parameter (alat)  =       1.8900  a.u.
     unit-cell volume          =    1089.4295 (a.u.)^3
     number of atoms/cell      =            4
     number of atomic types    =            2
     number of electrons       =        56.00
     number of Kohn-Sham states=           40
     kinetic-energy cutoff     =      40.0000  Ry
     charge density cutoff     =     160.0000  Ry
     convergence threshold     =      1.0E-05
     mixing beta               =       0.4500
     number of iterations used =            8  plain     mixing
     Exchange-correlation      = PBE ( 1  4  3  4 0 0)

     celldm(1)=   1.890000  celldm(2)=   0.000000  celldm(3)=   0.000000
     celldm(4)=   0.000000  celldm(5)=   0.000000  celldm(6)=   0.000000

     crystal axes: (cart. coord. in units of alat)
               a(1) = (   4.716987  -0.015513  -0.002401 )  
               a(2) = (  -2.371927   4.062830  -0.000274 )  
               a(3) = (  -0.002553  -0.001388   8.436361 )  

     reciprocal axes: (cart. coord. in units 2 pi/alat)
               b(1) = (  0.212408  0.124006  0.000085 )  
               b(2) = (  0.000811  0.246607  0.000041 )  
               b(3) = (  0.000060  0.000043  0.118535 )  


     PseudoPot. # 1 for Cd read from file:
     /projects/academic/cyberwksp21/Students/jstetzler/QE_examples/Tutorials_QE_and_eQE/6_nac_workflow/step2b/PP/Cd.pbe-n-rrkjus_psl.1.0.0.UPF
     MD5 check sum: a744746c89d2344a134ead0d8ab94e7a
     Pseudo is Ultrasoft + core correction, Zval = 12.0
     Generated using "atomic" code by A. Dal Corso v.6.3
     Using radial grid of 1239 points,  6 beta functions with: 
                l(1) =   0
                l(2) =   0
                l(3) =   1
                l(4) =   1
                l(5) =   2
                l(6) =   2
     Q(r) pseudized with 0 coefficients 


     PseudoPot. # 2 for Se read from file:
     /projects/academic/cyberwksp21/Students/jstetzler/QE_examples/Tutorials_QE_and_eQE/6_nac_workflow/step2b/PP/Se.pbe-dn-rrkjus_psl.1.0.0.UPF
     MD5 check sum: 497c2ee764913186385bad8d0f9c7a86
     Pseudo is Ultrasoft + core correction, Zval = 16.0
     Generated using "atomic" code by A. Dal Corso v.6.3
     Using radial grid of 1211 points,  6 beta functions with: 
                l(1) =   0
                l(2) =   0
                l(3) =   1
                l(4) =   1
                l(5) =   2
                l(6) =   2
     Q(r) pseudized with 0 coefficients 


     atomic species   valence    mass     pseudopotential
        Cd            12.00   121.41100     Cd( 1.00)
        Se            16.00    78.96000     Se( 1.00)

     Starting magnetic structure 
     atomic species   magnetization
        Cd           0.100
        Se           0.000

     No symmetry found



   Cartesian axes

     site n.     atom                  positions (alat units)
         1           Cd  tau(   1) = (   0.0045061   2.6802754   8.7989560  )
         2           Cd  tau(   2) = (   2.3361049   1.3649271   4.5772402  )
         3           Se  tau(   3) = (  -0.0024562   2.7009672   2.8845575  )
         4           Se  tau(   4) = (   2.3451059   1.3450383   7.0998855  )

     number of k points=     1  gaussian smearing, width (Ry)=  0.0050
                       cart. coord. in units 2pi/alat
        k(    1) = (   0.0000000   0.0000000   0.0000000), wk =   1.0000000

     Dense  grid:    37187 G-vectors     FFT dimensions: (  36,  36,  72)

     Estimated max dynamical RAM per process >      40.32 MB

     Estimated total dynamical RAM >     161.26 MB
     Generating pointlists ...
     new r_m :   0.4125 (alat units)  0.7796 (a.u.) for type    1
     new r_m :   0.4125 (alat units)  0.7796 (a.u.) for type    2

     Initial potential from superposition of free atoms

     starting charge   55.99008, renormalised to   56.00000

     negative rho (up, down):  2.419E-06 1.487E-06
     Starting wfc are   36 randomized atomic wfcs +    4 random wfc

     total cpu time spent up to now is        3.5 secs

     Self-consistent Calculation

     iteration #  1     ecut=    40.00 Ry     beta= 0.45
     Davidson diagonalization with overlap
     ethr =  1.00E-02,  avg # of iterations =  7.0

     Threshold (ethr) on eigenvalues was too large:
     Diagonalizing with lowered threshold

     Davidson diagonalization with overlap
     ethr =  5.13E-04,  avg # of iterations =  1.0

     negative rho (up, down):  1.133E-05 3.138E-05

     total cpu time spent up to now is        4.5 secs

     total energy              =    -717.12528506 Ry
     Harris-Foulkes estimate   =    -717.23636579 Ry
     estimated scf accuracy    <       0.28275685 Ry

     total magnetization       =     1.45 Bohr mag/cell
     absolute magnetization    =     1.46 Bohr mag/cell

     iteration #  2     ecut=    40.00 Ry     beta= 0.45
     Davidson diagonalization with overlap
     ethr =  5.05E-04,  avg # of iterations =  2.0

     negative rho (up, down):  2.507E-05 3.979E-05

     total cpu time spent up to now is        5.1 secs

     total energy              =    -717.20715745 Ry
     Harris-Foulkes estimate   =    -717.21426409 Ry
     estimated scf accuracy    <       0.05965485 Ry

     total magnetization       =     1.68 Bohr mag/cell
     absolute magnetization    =     1.69 Bohr mag/cell

     iteration #  3     ecut=    40.00 Ry     beta= 0.45
     Davidson diagonalization with overlap
     ethr =  1.07E-04,  avg # of iterations =  4.0

     negative rho (up, down):  2.766E-05 4.280E-05

     total cpu time spent up to now is        5.7 secs

     total energy              =    -717.20300726 Ry
     Harris-Foulkes estimate   =    -717.22431126 Ry
     estimated scf accuracy    <       0.17587295 Ry

     total magnetization       =     2.00 Bohr mag/cell
     absolute magnetization    =     2.02 Bohr mag/cell

     iteration #  4     ecut=    40.00 Ry     beta= 0.45
     Davidson diagonalization with overlap
     ethr =  1.07E-04,  avg # of iterations =  1.5

     negative rho (up, down):  4.600E-05 6.213E-05

     total cpu time spent up to now is        6.2 secs

     total energy              =    -717.22378886 Ry
     Harris-Foulkes estimate   =    -717.23555096 Ry
     estimated scf accuracy    <       0.36967625 Ry

     total magnetization       =     2.00 Bohr mag/cell
     absolute magnetization    =     2.02 Bohr mag/cell

     iteration #  5     ecut=    40.00 Ry     beta= 0.45
     Davidson diagonalization with overlap
     ethr =  1.07E-04,  avg # of iterations =  1.0

     negative rho (up, down):  8.616E-05 1.103E-04

     total cpu time spent up to now is        6.8 secs

     total energy              =    -717.23824765 Ry
     Harris-Foulkes estimate   =    -717.23305456 Ry
     estimated scf accuracy    <       0.00419100 Ry

     total magnetization       =     2.00 Bohr mag/cell
     absolute magnetization    =     2.03 Bohr mag/cell

     iteration #  6     ecut=    40.00 Ry     beta= 0.45
     Davidson diagonalization with overlap
     ethr =  7.48E-06,  avg # of iterations =  2.5

     negative rho (up, down):  8.427E-05 1.122E-04

     total cpu time spent up to now is        7.3 secs

     total energy              =    -717.23911500 Ry
     Harris-Foulkes estimate   =    -717.23927506 Ry
     estimated scf accuracy    <       0.00234394 Ry

     total magnetization       =     2.00 Bohr mag/cell
     absolute magnetization    =     2.08 Bohr mag/cell

     iteration #  7     ecut=    40.00 Ry     beta= 0.45
     Davidson diagonalization with overlap
     ethr =  4.19E-06,  avg # of iterations =  1.0

     negative rho (up, down):  8.173E-05 1.118E-04

     total cpu time spent up to now is        7.9 secs

     total energy              =    -717.23925761 Ry
     Harris-Foulkes estimate   =    -717.23926914 Ry
     estimated scf accuracy    <       0.00049237 Ry

     total magnetization       =     2.00 Bohr mag/cell
     absolute magnetization    =     2.09 Bohr mag/cell

     iteration #  8     ecut=    40.00 Ry     beta= 0.45
     Davidson diagonalization with overlap
     ethr =  8.79E-07,  avg # of iterations =  1.5

     negative rho (up, down):  7.927E-05 1.115E-04

     total cpu time spent up to now is        8.4 secs

     total energy              =    -717.23927298 Ry
     Harris-Foulkes estimate   =    -717.23927132 Ry
     estimated scf accuracy    <       0.00005714 Ry

     total magnetization       =     2.00 Bohr mag/cell
     absolute magnetization    =     2.09 Bohr mag/cell

     iteration #  9     ecut=    40.00 Ry     beta= 0.45
     Davidson diagonalization with overlap
     ethr =  1.02E-07,  avg # of iterations =  2.0

     negative rho (up, down):  7.864E-05 1.121E-04

     total cpu time spent up to now is        8.9 secs

     total energy              =    -717.23928074 Ry
     Harris-Foulkes estimate   =    -717.23927998 Ry
     estimated scf accuracy    <       0.00002214 Ry

     total magnetization       =     2.00 Bohr mag/cell
     absolute magnetization    =     2.09 Bohr mag/cell

     iteration # 10     ecut=    40.00 Ry     beta= 0.45
     Davidson diagonalization with overlap
     c_bands:  1 eigenvalues not converged
     ethr =  3.95E-08,  avg # of iterations = 11.5

     negative rho (up, down):  7.816E-05 1.126E-04

     Magnetic moment per site:
     atom:    1    charge:    2.2797    magn:    0.0084    constr:    0.0000
     atom:    2    charge:    2.2798    magn:    0.0085    constr:    0.0000
     atom:    3    charge:    8.0188    magn:    0.0270    constr:    0.0000
     atom:    4    charge:    8.0161    magn:    0.0271    constr:    0.0000

     total cpu time spent up to now is        9.6 secs

     End of self-consistent calculation

 ------ SPIN UP ------------


          k = 0.0000 0.0000 0.0000 (  4621 PWs)   bands (ev):

   -43.9290 -43.9145 -43.9111 -43.9029 -43.9018 -43.8971 -43.8737 -43.8691
   -43.8590 -43.8539  -9.3837  -9.2240  -4.9564  -4.9146  -4.9053  -4.8516
    -4.8478  -4.8178  -4.7955  -4.7926  -4.7912  -4.7870  -1.2247   1.3865
     1.6412   1.6941   2.0649   2.0810   2.1528   4.9786   7.9267   8.2099
     8.2526   8.4847   9.2170   9.2300   9.9942  10.8886  11.0162  11.9954

 ------ SPIN DOWN ----------


          k = 0.0000 0.0000 0.0000 (  4621 PWs)   bands (ev):

   -43.8363 -43.8096 -43.8048 -43.8013 -43.7929 -43.7877 -43.7171 -43.7122
   -43.7025 -43.6973  -8.6597  -8.4792  -4.9258  -4.8645  -4.8582  -4.8129
    -4.8104  -4.7938  -4.7931  -4.7907  -4.7870  -4.7743  -1.0678   1.6594
     2.2710   2.5597   2.6165   3.0476   3.0644   5.1060   8.0796   8.3252
     8.3682   8.6528   9.4351   9.4521  10.0247  11.1773  11.3040  12.0376

     the Fermi energy is     2.8312 ev

!    total energy              =    -717.23928244 Ry
     Harris-Foulkes estimate   =    -717.23928208 Ry
     estimated scf accuracy    <       0.00000031 Ry

     The total energy is the sum of the following terms:

     one-electron contribution =    -609.13742465 Ry
     hartree contribution      =     323.81322164 Ry
     xc contribution           =    -102.43162233 Ry
     ewald contribution        =    -329.48345696 Ry
     smearing contrib. (-TS)   =      -0.00000013 Ry

     total magnetization       =     2.00 Bohr mag/cell
     absolute magnetization    =     2.09 Bohr mag/cell

     convergence has been achieved in  10 iterations

     Writing output data file x0.save

     init_run     :      1.95s CPU      2.01s WALL (       1 calls)
     electrons    :      5.91s CPU      6.14s WALL (       1 calls)

     Called by init_run:
     wfcinit      :      0.06s CPU      0.07s WALL (       1 calls)
     potinit      :      0.53s CPU      0.55s WALL (       1 calls)

     Called by electrons:
     c_bands      :      1.98s CPU      2.08s WALL (      11 calls)
     sum_band     :      2.34s CPU      2.39s WALL (      11 calls)
     v_of_rho     :      0.66s CPU      0.68s WALL (      11 calls)
     newd         :      1.02s CPU      1.04s WALL (      11 calls)
     mix_rho      :      0.05s CPU      0.05s WALL (      11 calls)

     Called by c_bands:
     init_us_2    :      0.04s CPU      0.04s WALL (      46 calls)
     cegterg      :      1.88s CPU      1.98s WALL (      22 calls)

     Called by sum_band:
     sum_band:bec :      0.00s CPU      0.00s WALL (      22 calls)
     addusdens    :      2.01s CPU      2.03s WALL (      11 calls)

     Called by *egterg:
     h_psi        :      1.36s CPU      1.45s WALL (      94 calls)
     s_psi        :      0.05s CPU      0.05s WALL (      94 calls)
     g_psi        :      0.01s CPU      0.01s WALL (      70 calls)
     cdiaghg      :      0.27s CPU      0.27s WALL (      90 calls)

     Called by h_psi:
     h_psi:pot    :      1.35s CPU      1.44s WALL (      94 calls)
     h_psi:calbec :      0.05s CPU      0.06s WALL (      94 calls)
     vloc_psi     :      1.24s CPU      1.33s WALL (      94 calls)
     add_vuspsi   :      0.05s CPU      0.05s WALL (      94 calls)

     General routines
     calbec       :      0.07s CPU      0.08s WALL (     116 calls)
     fft          :      0.14s CPU      0.17s WALL (     277 calls)
     fftw         :      1.34s CPU      1.44s WALL (    4966 calls)

     Parallel routines
     fft_scatt_xy :      0.17s CPU      0.18s WALL (    5243 calls)
     fft_scatt_yz :      0.30s CPU      0.34s WALL (    5243 calls)

     PWSCF        :     9.22s CPU        10.01s WALL


   This run was terminated on:  15: 6:24  12Jul2022            

=------------------------------------------------------------------------------=
   JOB DONE.
=------------------------------------------------------------------------------=
