
     Program PWSCF v.6.2 (svn rev. 14038) starts on 12Jul2022 at 15: 6:33 

     This program is part of the open-source Quantum ESPRESSO suite
     for quantum simulation of materials; please cite
         "P. Giannozzi et al., J. Phys.:Condens. Matter 21 395502 (2009);
         "P. Giannozzi et al., J. Phys.:Condens. Matter 29 465901 (2017);
          URL http://www.quantum-espresso.org", 
     in publications or presentations arising from this work. More details at
     http://www.quantum-espresso.org/quote

     Parallel version (MPI), running on     4 processors

     MPI processes distributed on     1 nodes
     R & G space division:  proc/nbgrp/npool/nimage =       4
     Waiting for input...
     Reading input from standard input
Warning: card &IONS ignored
Warning: card   ION_DYNAMICS = 'VERLET', ignored
Warning: card   ION_TEMPERATURE = 'ANDERSEN', ignored
Warning: card   TEMPW = 300.00 , ignored
Warning: card   NRAISE = 1, ignored
Warning: card / ignored

     Current dimensions of program PWSCF are:
     Max number of different atomic species (ntypx) = 10
     Max number of k-points (npk) =  40000
     Max angular momentum in pseudopotentials (lmaxx) =  3
               file Cd.pbe-n-rrkjus_psl.1.0.0.UPF: wavefunction(s)  4D renormalized

     Subspace diagonalization in iterative solution of the eigenvalue problem:
     a serial algorithm will be used


     Parallelization info
     --------------------
     sticks:   dense  smooth     PW     G-vecs:    dense   smooth      PW
     Min         215     215     52                 9295     9295    1151
     Max         216     216     53                 9298     9298    1158
     Sum         863     863    211                37187    37187    4621



     bravais-lattice index     =            0
     lattice parameter (alat)  =       1.8900  a.u.
     unit-cell volume          =    1089.4295 (a.u.)^3
     number of atoms/cell      =            4
     number of atomic types    =            2
     number of electrons       =        56.00
     number of Kohn-Sham states=           40
     kinetic-energy cutoff     =      40.0000  Ry
     charge density cutoff     =     160.0000  Ry
     convergence threshold     =      1.0E-05
     mixing beta               =       0.4500
     number of iterations used =            8  plain     mixing
     Exchange-correlation      = PBE ( 1  4  3  4 0 0)

     celldm(1)=   1.890000  celldm(2)=   0.000000  celldm(3)=   0.000000
     celldm(4)=   0.000000  celldm(5)=   0.000000  celldm(6)=   0.000000

     crystal axes: (cart. coord. in units of alat)
               a(1) = (   4.716987  -0.015513  -0.002401 )  
               a(2) = (  -2.371927   4.062830  -0.000274 )  
               a(3) = (  -0.002553  -0.001388   8.436361 )  

     reciprocal axes: (cart. coord. in units 2 pi/alat)
               b(1) = (  0.212408  0.124006  0.000085 )  
               b(2) = (  0.000811  0.246607  0.000041 )  
               b(3) = (  0.000060  0.000043  0.118535 )  


     PseudoPot. # 1 for Cd read from file:
     /projects/academic/cyberwksp21/Students/jstetzler/QE_examples/Tutorials_QE_and_eQE/6_nac_workflow/step2b/PP/Cd.pbe-n-rrkjus_psl.1.0.0.UPF
     MD5 check sum: a744746c89d2344a134ead0d8ab94e7a
     Pseudo is Ultrasoft + core correction, Zval = 12.0
     Generated using "atomic" code by A. Dal Corso v.6.3
     Using radial grid of 1239 points,  6 beta functions with: 
                l(1) =   0
                l(2) =   0
                l(3) =   1
                l(4) =   1
                l(5) =   2
                l(6) =   2
     Q(r) pseudized with 0 coefficients 


     PseudoPot. # 2 for Se read from file:
     /projects/academic/cyberwksp21/Students/jstetzler/QE_examples/Tutorials_QE_and_eQE/6_nac_workflow/step2b/PP/Se.pbe-dn-rrkjus_psl.1.0.0.UPF
     MD5 check sum: 497c2ee764913186385bad8d0f9c7a86
     Pseudo is Ultrasoft + core correction, Zval = 16.0
     Generated using "atomic" code by A. Dal Corso v.6.3
     Using radial grid of 1211 points,  6 beta functions with: 
                l(1) =   0
                l(2) =   0
                l(3) =   1
                l(4) =   1
                l(5) =   2
                l(6) =   2
     Q(r) pseudized with 0 coefficients 


     atomic species   valence    mass     pseudopotential
        Cd            12.00   121.41100     Cd( 1.00)
        Se            16.00    78.96000     Se( 1.00)

     Starting magnetic structure 
     atomic species   magnetization
        Cd           0.100
        Se           0.000

     No symmetry found



   Cartesian axes

     site n.     atom                  positions (alat units)
         1           Cd  tau(   1) = (   0.0061728   2.6802836   8.7992151  )
         2           Cd  tau(   2) = (   2.3357126   1.3646687   4.5754993  )
         3           Se  tau(   3) = (  -0.0028626   2.7004968   2.8850849  )
         4           Se  tau(   4) = (   2.3435528   1.3458932   7.1016365  )

     number of k points=     1  gaussian smearing, width (Ry)=  0.0050
                       cart. coord. in units 2pi/alat
        k(    1) = (   0.0000000   0.0000000   0.0000000), wk =   1.0000000

     Dense  grid:    37187 G-vectors     FFT dimensions: (  36,  36,  72)

     Estimated max dynamical RAM per process >      40.32 MB

     Estimated total dynamical RAM >     161.26 MB
     Generating pointlists ...
     new r_m :   0.4125 (alat units)  0.7796 (a.u.) for type    1
     new r_m :   0.4125 (alat units)  0.7796 (a.u.) for type    2

     Initial potential from superposition of free atoms

     starting charge   55.99008, renormalised to   56.00000

     negative rho (up, down):  2.234E-06 1.337E-06
     Starting wfc are   36 randomized atomic wfcs +    4 random wfc

     total cpu time spent up to now is        3.7 secs

     Self-consistent Calculation

     iteration #  1     ecut=    40.00 Ry     beta= 0.45
     Davidson diagonalization with overlap
     ethr =  1.00E-02,  avg # of iterations =  7.0

     Threshold (ethr) on eigenvalues was too large:
     Diagonalizing with lowered threshold

     Davidson diagonalization with overlap
     ethr =  5.12E-04,  avg # of iterations =  1.0

     negative rho (up, down):  1.111E-05 3.082E-05

     total cpu time spent up to now is        4.7 secs

     total energy              =    -717.12535550 Ry
     Harris-Foulkes estimate   =    -717.23625997 Ry
     estimated scf accuracy    <       0.28246532 Ry

     total magnetization       =     1.45 Bohr mag/cell
     absolute magnetization    =     1.45 Bohr mag/cell

     iteration #  2     ecut=    40.00 Ry     beta= 0.45
     Davidson diagonalization with overlap
     ethr =  5.04E-04,  avg # of iterations =  2.0

     negative rho (up, down):  2.440E-05 3.893E-05

     total cpu time spent up to now is        5.3 secs

     total energy              =    -717.20501762 Ry
     Harris-Foulkes estimate   =    -717.21433420 Ry
     estimated scf accuracy    <       0.06400424 Ry

     total magnetization       =     1.68 Bohr mag/cell
     absolute magnetization    =     1.69 Bohr mag/cell

     iteration #  3     ecut=    40.00 Ry     beta= 0.45
     Davidson diagonalization with overlap
     ethr =  1.14E-04,  avg # of iterations =  4.5

     negative rho (up, down):  2.641E-05 4.139E-05

     total cpu time spent up to now is        5.9 secs

     total energy              =    -717.19508298 Ry
     Harris-Foulkes estimate   =    -717.23604034 Ry
     estimated scf accuracy    <       0.43041199 Ry

     total magnetization       =     2.00 Bohr mag/cell
     absolute magnetization    =     2.02 Bohr mag/cell

     iteration #  4     ecut=    40.00 Ry     beta= 0.45
     Davidson diagonalization with overlap
     ethr =  1.14E-04,  avg # of iterations =  1.5

     negative rho (up, down):  4.540E-05 6.186E-05

     total cpu time spent up to now is        6.4 secs

     total energy              =    -717.22649062 Ry
     Harris-Foulkes estimate   =    -717.22692006 Ry
     estimated scf accuracy    <       0.19059139 Ry

     total magnetization       =     2.00 Bohr mag/cell
     absolute magnetization    =     2.02 Bohr mag/cell

     iteration #  5     ecut=    40.00 Ry     beta= 0.45
     Davidson diagonalization with overlap
     ethr =  1.14E-04,  avg # of iterations =  1.0

     negative rho (up, down):  8.672E-05 1.099E-04

     total cpu time spent up to now is        6.9 secs

     total energy              =    -717.23810954 Ry
     Harris-Foulkes estimate   =    -717.23311247 Ry
     estimated scf accuracy    <       0.00622519 Ry

     total magnetization       =     2.00 Bohr mag/cell
     absolute magnetization    =     2.03 Bohr mag/cell

     iteration #  6     ecut=    40.00 Ry     beta= 0.45
     Davidson diagonalization with overlap
     ethr =  1.11E-05,  avg # of iterations =  2.5

     negative rho (up, down):  8.533E-05 1.120E-04

     total cpu time spent up to now is        7.5 secs

     total energy              =    -717.23910895 Ry
     Harris-Foulkes estimate   =    -717.23926551 Ry
     estimated scf accuracy    <       0.00265405 Ry

     total magnetization       =     2.00 Bohr mag/cell
     absolute magnetization    =     2.08 Bohr mag/cell

     iteration #  7     ecut=    40.00 Ry     beta= 0.45
     Davidson diagonalization with overlap
     ethr =  4.74E-06,  avg # of iterations =  1.5

     negative rho (up, down):  8.229E-05 1.117E-04

     total cpu time spent up to now is        8.0 secs

     total energy              =    -717.23925753 Ry
     Harris-Foulkes estimate   =    -717.23926130 Ry
     estimated scf accuracy    <       0.00029735 Ry

     total magnetization       =     2.00 Bohr mag/cell
     absolute magnetization    =     2.09 Bohr mag/cell

     iteration #  8     ecut=    40.00 Ry     beta= 0.45
     Davidson diagonalization with overlap
     c_bands:  1 eigenvalues not converged
     ethr =  5.31E-07,  avg # of iterations = 11.5

     negative rho (up, down):  7.939E-05 1.116E-04

     total cpu time spent up to now is        8.7 secs

     total energy              =    -717.23927339 Ry
     Harris-Foulkes estimate   =    -717.23927225 Ry
     estimated scf accuracy    <       0.00006366 Ry

     total magnetization       =     2.00 Bohr mag/cell
     absolute magnetization    =     2.09 Bohr mag/cell

     iteration #  9     ecut=    40.00 Ry     beta= 0.45
     Davidson diagonalization with overlap
     ethr =  1.14E-07,  avg # of iterations = 10.0

     negative rho (up, down):  7.849E-05 1.123E-04

     total cpu time spent up to now is        9.4 secs

     total energy              =    -717.23928095 Ry
     Harris-Foulkes estimate   =    -717.23927989 Ry
     estimated scf accuracy    <       0.00002144 Ry

     total magnetization       =     2.00 Bohr mag/cell
     absolute magnetization    =     2.09 Bohr mag/cell

     iteration # 10     ecut=    40.00 Ry     beta= 0.45
     Davidson diagonalization with overlap
     ethr =  3.83E-08,  avg # of iterations =  1.5

     negative rho (up, down):  7.806E-05 1.130E-04

     Magnetic moment per site:
     atom:    1    charge:    2.2799    magn:    0.0084    constr:    0.0000
     atom:    2    charge:    2.2799    magn:    0.0085    constr:    0.0000
     atom:    3    charge:    8.0194    magn:    0.0269    constr:    0.0000
     atom:    4    charge:    8.0192    magn:    0.0271    constr:    0.0000

     total cpu time spent up to now is        9.9 secs

     End of self-consistent calculation

 ------ SPIN UP ------------


          k = 0.0000 0.0000 0.0000 (  4621 PWs)   bands (ev):

   -43.9283 -43.9143 -43.9109 -43.9016 -43.9007 -43.8961 -43.8736 -43.8691
   -43.8578 -43.8527  -9.3817  -9.2221  -4.9555  -4.9142  -4.9042  -4.8512
    -4.8470  -4.8165  -4.7949  -4.7921  -4.7907  -4.7862  -1.2230   1.3897
     1.6406   1.6953   2.0647   2.0809   2.1515   4.9761   7.9266   8.2093
     8.2525   8.4810   9.2144   9.2296   9.9944  10.8883  11.0185  11.9614

 ------ SPIN DOWN ----------


          k = 0.0000 0.0000 0.0000 (  4621 PWs)   bands (ev):

   -43.8356 -43.8087 -43.8045 -43.8010 -43.7918 -43.7868 -43.7169 -43.7122
   -43.7015 -43.6962  -8.6574  -8.4769  -4.9251  -4.8639  -4.8571  -4.8123
    -4.8097  -4.7935  -4.7923  -4.7901  -4.7862  -4.7731  -1.0663   1.6626
     2.2694   2.5593   2.6180   3.0476   3.0645   5.1034   8.0797   8.3245
     8.3679   8.6488   9.4314   9.4528  10.0249  11.1770  11.3062  12.0070

     the Fermi energy is     2.8319 ev

!    total energy              =    -717.23928207 Ry
     Harris-Foulkes estimate   =    -717.23928234 Ry
     estimated scf accuracy    <       0.00000081 Ry

     The total energy is the sum of the following terms:

     one-electron contribution =    -609.08717591 Ry
     hartree contribution      =     323.78942222 Ry
     xc contribution           =    -102.43116619 Ry
     ewald contribution        =    -329.51036205 Ry
     smearing contrib. (-TS)   =      -0.00000014 Ry

     total magnetization       =     2.00 Bohr mag/cell
     absolute magnetization    =     2.09 Bohr mag/cell

     convergence has been achieved in  10 iterations

     Writing output data file x0.save

     init_run     :      1.99s CPU      2.13s WALL (       1 calls)
     electrons    :      6.02s CPU      6.27s WALL (       1 calls)

     Called by init_run:
     wfcinit      :      0.06s CPU      0.08s WALL (       1 calls)
     potinit      :      0.55s CPU      0.59s WALL (       1 calls)

     Called by electrons:
     c_bands      :      2.07s CPU      2.19s WALL (      11 calls)
     sum_band     :      2.34s CPU      2.38s WALL (      11 calls)
     v_of_rho     :      0.67s CPU      0.71s WALL (      11 calls)
     newd         :      1.03s CPU      1.06s WALL (      11 calls)
     mix_rho      :      0.05s CPU      0.05s WALL (      11 calls)

     Called by c_bands:
     init_us_2    :      0.04s CPU      0.05s WALL (      46 calls)
     cegterg      :      1.97s CPU      2.09s WALL (      22 calls)

     Called by sum_band:
     sum_band:bec :      0.00s CPU      0.00s WALL (      22 calls)
     addusdens    :      2.01s CPU      2.02s WALL (      11 calls)

     Called by *egterg:
     h_psi        :      1.36s CPU      1.46s WALL (     112 calls)
     s_psi        :      0.05s CPU      0.05s WALL (     112 calls)
     g_psi        :      0.01s CPU      0.01s WALL (      88 calls)
     cdiaghg      :      0.33s CPU      0.35s WALL (     108 calls)

     Called by h_psi:
     h_psi:pot    :      1.35s CPU      1.45s WALL (     112 calls)
     h_psi:calbec :      0.06s CPU      0.06s WALL (     112 calls)
     vloc_psi     :      1.24s CPU      1.33s WALL (     112 calls)
     add_vuspsi   :      0.05s CPU      0.05s WALL (     112 calls)

     General routines
     calbec       :      0.07s CPU      0.08s WALL (     134 calls)
     fft          :      0.19s CPU      0.28s WALL (     277 calls)
     fftw         :      1.35s CPU      1.45s WALL (    4980 calls)

     Parallel routines
     fft_scatt_xy :      0.17s CPU      0.18s WALL (    5257 calls)
     fft_scatt_yz :      0.35s CPU      0.45s WALL (    5257 calls)

     PWSCF        :     9.43s CPU        10.37s WALL


   This run was terminated on:  15: 6:44  12Jul2022            

=------------------------------------------------------------------------------=
   JOB DONE.
=------------------------------------------------------------------------------=
