
     Program PWSCF v.6.2 (svn rev. 14038) starts on 12Jul2022 at 15: 7:54 

     This program is part of the open-source Quantum ESPRESSO suite
     for quantum simulation of materials; please cite
         "P. Giannozzi et al., J. Phys.:Condens. Matter 21 395502 (2009);
         "P. Giannozzi et al., J. Phys.:Condens. Matter 29 465901 (2017);
          URL http://www.quantum-espresso.org", 
     in publications or presentations arising from this work. More details at
     http://www.quantum-espresso.org/quote

     Parallel version (MPI), running on     4 processors

     MPI processes distributed on     1 nodes
     R & G space division:  proc/nbgrp/npool/nimage =       4
     Waiting for input...
     Reading input from standard input
Warning: card &IONS ignored
Warning: card   ION_DYNAMICS = 'VERLET', ignored
Warning: card   ION_TEMPERATURE = 'ANDERSEN', ignored
Warning: card   TEMPW = 300.00 , ignored
Warning: card   NRAISE = 1, ignored
Warning: card / ignored

     Current dimensions of program PWSCF are:
     Max number of different atomic species (ntypx) = 10
     Max number of k-points (npk) =  40000
     Max angular momentum in pseudopotentials (lmaxx) =  3
               file Cd.pbe-n-rrkjus_psl.1.0.0.UPF: wavefunction(s)  4D renormalized

     Subspace diagonalization in iterative solution of the eigenvalue problem:
     a serial algorithm will be used


     Parallelization info
     --------------------
     sticks:   dense  smooth     PW     G-vecs:    dense   smooth      PW
     Min         215     215     52                 9295     9295    1151
     Max         216     216     53                 9298     9298    1158
     Sum         863     863    211                37187    37187    4621



     bravais-lattice index     =            0
     lattice parameter (alat)  =       1.8900  a.u.
     unit-cell volume          =    1089.4295 (a.u.)^3
     number of atoms/cell      =            4
     number of atomic types    =            2
     number of electrons       =        56.00
     number of Kohn-Sham states=           40
     kinetic-energy cutoff     =      40.0000  Ry
     charge density cutoff     =     160.0000  Ry
     convergence threshold     =      1.0E-05
     mixing beta               =       0.4500
     number of iterations used =            8  plain     mixing
     Exchange-correlation      = PBE ( 1  4  3  4 0 0)

     celldm(1)=   1.890000  celldm(2)=   0.000000  celldm(3)=   0.000000
     celldm(4)=   0.000000  celldm(5)=   0.000000  celldm(6)=   0.000000

     crystal axes: (cart. coord. in units of alat)
               a(1) = (   4.716987  -0.015513  -0.002401 )  
               a(2) = (  -2.371927   4.062830  -0.000274 )  
               a(3) = (  -0.002553  -0.001388   8.436361 )  

     reciprocal axes: (cart. coord. in units 2 pi/alat)
               b(1) = (  0.212408  0.124006  0.000085 )  
               b(2) = (  0.000811  0.246607  0.000041 )  
               b(3) = (  0.000060  0.000043  0.118535 )  


     PseudoPot. # 1 for Cd read from file:
     /projects/academic/cyberwksp21/Students/jstetzler/QE_examples/Tutorials_QE_and_eQE/6_nac_workflow/step2b/PP/Cd.pbe-n-rrkjus_psl.1.0.0.UPF
     MD5 check sum: a744746c89d2344a134ead0d8ab94e7a
     Pseudo is Ultrasoft + core correction, Zval = 12.0
     Generated using "atomic" code by A. Dal Corso v.6.3
     Using radial grid of 1239 points,  6 beta functions with: 
                l(1) =   0
                l(2) =   0
                l(3) =   1
                l(4) =   1
                l(5) =   2
                l(6) =   2
     Q(r) pseudized with 0 coefficients 


     PseudoPot. # 2 for Se read from file:
     /projects/academic/cyberwksp21/Students/jstetzler/QE_examples/Tutorials_QE_and_eQE/6_nac_workflow/step2b/PP/Se.pbe-dn-rrkjus_psl.1.0.0.UPF
     MD5 check sum: 497c2ee764913186385bad8d0f9c7a86
     Pseudo is Ultrasoft + core correction, Zval = 16.0
     Generated using "atomic" code by A. Dal Corso v.6.3
     Using radial grid of 1211 points,  6 beta functions with: 
                l(1) =   0
                l(2) =   0
                l(3) =   1
                l(4) =   1
                l(5) =   2
                l(6) =   2
     Q(r) pseudized with 0 coefficients 


     atomic species   valence    mass     pseudopotential
        Cd            12.00   121.41100     Cd( 1.00)
        Se            16.00    78.96000     Se( 1.00)

     Starting magnetic structure 
     atomic species   magnetization
        Cd           0.100
        Se           0.000

     No symmetry found



   Cartesian axes

     site n.     atom                  positions (alat units)
         1           Cd  tau(   1) = (   0.0082699   2.6755504   8.8058861  )
         2           Cd  tau(   2) = (   2.3366661   1.3606882   4.5654756  )
         3           Se  tau(   3) = (  -0.0008298   2.7096987   2.8900300  )
         4           Se  tau(   4) = (   2.3368292   1.3500900   7.1018466  )

     number of k points=     1  gaussian smearing, width (Ry)=  0.0050
                       cart. coord. in units 2pi/alat
        k(    1) = (   0.0000000   0.0000000   0.0000000), wk =   1.0000000

     Dense  grid:    37187 G-vectors     FFT dimensions: (  36,  36,  72)

     Estimated max dynamical RAM per process >      40.32 MB

     Estimated total dynamical RAM >     161.26 MB
     Generating pointlists ...
     new r_m :   0.4125 (alat units)  0.7796 (a.u.) for type    1
     new r_m :   0.4125 (alat units)  0.7796 (a.u.) for type    2

     Initial potential from superposition of free atoms

     starting charge   55.99008, renormalised to   56.00000

     negative rho (up, down):  1.809E-06 9.931E-07
     Starting wfc are   36 randomized atomic wfcs +    4 random wfc

     total cpu time spent up to now is        3.2 secs

     Self-consistent Calculation

     iteration #  1     ecut=    40.00 Ry     beta= 0.45
     Davidson diagonalization with overlap
     ethr =  1.00E-02,  avg # of iterations =  7.0

     Threshold (ethr) on eigenvalues was too large:
     Diagonalizing with lowered threshold

     Davidson diagonalization with overlap
     ethr =  5.12E-04,  avg # of iterations =  1.0

     negative rho (up, down):  1.190E-05 3.138E-05

     total cpu time spent up to now is        4.2 secs

     total energy              =    -717.12520577 Ry
     Harris-Foulkes estimate   =    -717.23592376 Ry
     estimated scf accuracy    <       0.28211751 Ry

     total magnetization       =     1.45 Bohr mag/cell
     absolute magnetization    =     1.45 Bohr mag/cell

     iteration #  2     ecut=    40.00 Ry     beta= 0.45
     Davidson diagonalization with overlap
     ethr =  5.04E-04,  avg # of iterations =  2.0

     negative rho (up, down):  2.088E-05 3.476E-05

     total cpu time spent up to now is        4.8 secs

     total energy              =    -717.16372247 Ry
     Harris-Foulkes estimate   =    -717.21710713 Ry
     estimated scf accuracy    <       0.17052824 Ry

     total magnetization       =     1.66 Bohr mag/cell
     absolute magnetization    =     1.67 Bohr mag/cell

     iteration #  3     ecut=    40.00 Ry     beta= 0.45
     Davidson diagonalization with overlap
     ethr =  3.05E-04,  avg # of iterations =  6.0

     negative rho (up, down):  2.608E-05 4.097E-05

     total cpu time spent up to now is        5.4 secs

     total energy              =    -717.18868837 Ry
     Harris-Foulkes estimate   =    -717.32405900 Ry
     estimated scf accuracy    <       1.08308704 Ry

     total magnetization       =     1.96 Bohr mag/cell
     absolute magnetization    =     1.98 Bohr mag/cell

     iteration #  4     ecut=    40.00 Ry     beta= 0.45
     Davidson diagonalization with overlap
     ethr =  3.05E-04,  avg # of iterations =  2.0

     negative rho (up, down):  4.482E-05 6.261E-05

     total cpu time spent up to now is        5.9 secs

     total energy              =    -717.22811004 Ry
     Harris-Foulkes estimate   =    -717.22234596 Ry
     estimated scf accuracy    <       0.03904526 Ry

     total magnetization       =     2.00 Bohr mag/cell
     absolute magnetization    =     2.02 Bohr mag/cell

     iteration #  5     ecut=    40.00 Ry     beta= 0.45
     Davidson diagonalization with overlap
     ethr =  6.97E-05,  avg # of iterations =  2.5

     negative rho (up, down):  6.287E-05 8.469E-05

     total cpu time spent up to now is        6.5 secs

     total energy              =    -717.22725893 Ry
     Harris-Foulkes estimate   =    -717.23743266 Ry
     estimated scf accuracy    <       0.14565554 Ry

     total magnetization       =     2.00 Bohr mag/cell
     absolute magnetization    =     2.04 Bohr mag/cell

     iteration #  6     ecut=    40.00 Ry     beta= 0.45
     Davidson diagonalization with overlap
     ethr =  6.97E-05,  avg # of iterations =  1.0

     negative rho (up, down):  8.394E-05 1.119E-04

     total cpu time spent up to now is        7.0 secs

     total energy              =    -717.23666037 Ry
     Harris-Foulkes estimate   =    -717.24007565 Ry
     estimated scf accuracy    <       0.09617523 Ry

     total magnetization       =     2.00 Bohr mag/cell
     absolute magnetization    =     2.06 Bohr mag/cell

     iteration #  7     ecut=    40.00 Ry     beta= 0.45
     Davidson diagonalization with overlap
     ethr =  6.97E-05,  avg # of iterations =  1.0

     negative rho (up, down):  7.865E-05 1.116E-04

     total cpu time spent up to now is        7.5 secs

     total energy              =    -717.23909795 Ry
     Harris-Foulkes estimate   =    -717.23907643 Ry
     estimated scf accuracy    <       0.00039459 Ry

     total magnetization       =     2.00 Bohr mag/cell
     absolute magnetization    =     2.08 Bohr mag/cell

     iteration #  8     ecut=    40.00 Ry     beta= 0.45
     Davidson diagonalization with overlap
     ethr =  7.05E-07,  avg # of iterations = 10.5

     negative rho (up, down):  7.768E-05 1.118E-04

     total cpu time spent up to now is        8.2 secs

     total energy              =    -717.23916569 Ry
     Harris-Foulkes estimate   =    -717.23915024 Ry
     estimated scf accuracy    <       0.00015357 Ry

     total magnetization       =     2.00 Bohr mag/cell
     absolute magnetization    =     2.09 Bohr mag/cell

     iteration #  9     ecut=    40.00 Ry     beta= 0.45
     Davidson diagonalization with overlap
     ethr =  2.74E-07,  avg # of iterations =  1.0

     negative rho (up, down):  7.701E-05 1.123E-04

     total cpu time spent up to now is        8.7 secs

     total energy              =    -717.23916374 Ry
     Harris-Foulkes estimate   =    -717.23916955 Ry
     estimated scf accuracy    <       0.00014594 Ry

     total magnetization       =     2.00 Bohr mag/cell
     absolute magnetization    =     2.09 Bohr mag/cell

     iteration # 10     ecut=    40.00 Ry     beta= 0.45
     Davidson diagonalization with overlap
     ethr =  2.61E-07,  avg # of iterations =  1.0

     negative rho (up, down):  7.715E-05 1.126E-04

     total cpu time spent up to now is        9.3 secs

     total energy              =    -717.23917118 Ry
     Harris-Foulkes estimate   =    -717.23917424 Ry
     estimated scf accuracy    <       0.00004261 Ry

     total magnetization       =     2.00 Bohr mag/cell
     absolute magnetization    =     2.09 Bohr mag/cell

     iteration # 11     ecut=    40.00 Ry     beta= 0.45
     Davidson diagonalization with overlap
     ethr =  7.61E-08,  avg # of iterations =  1.0

     negative rho (up, down):  7.692E-05 1.127E-04

     total cpu time spent up to now is        9.8 secs

     total energy              =    -717.23917357 Ry
     Harris-Foulkes estimate   =    -717.23917383 Ry
     estimated scf accuracy    <       0.00001084 Ry

     total magnetization       =     2.00 Bohr mag/cell
     absolute magnetization    =     2.09 Bohr mag/cell

     iteration # 12     ecut=    40.00 Ry     beta= 0.45
     Davidson diagonalization with overlap
     ethr =  1.94E-08,  avg # of iterations =  1.5

     negative rho (up, down):  7.686E-05 1.128E-04

     Magnetic moment per site:
     atom:    1    charge:    2.2836    magn:    0.0084    constr:    0.0000
     atom:    2    charge:    2.2792    magn:    0.0085    constr:    0.0000
     atom:    3    charge:    8.0264    magn:    0.0267    constr:    0.0000
     atom:    4    charge:    8.0254    magn:    0.0274    constr:    0.0000

     total cpu time spent up to now is       10.3 secs

     End of self-consistent calculation

 ------ SPIN UP ------------


          k = 0.0000 0.0000 0.0000 (  4621 PWs)   bands (ev):

   -43.9377 -43.9316 -43.9200 -43.8921 -43.8888 -43.8869 -43.8841 -43.8812
   -43.8433 -43.8378  -9.3785  -9.2189  -4.9522  -4.9116  -4.9010  -4.8485
    -4.8439  -4.8121  -4.7940  -4.7911  -4.7857  -4.7818  -1.2184   1.3972
     1.6387   1.6947   2.0632   2.0809   2.1493   4.9709   7.9257   8.2085
     8.2543   8.4737   9.2012   9.2373   9.9955  10.8891  11.0230  11.9439

 ------ SPIN DOWN ----------


          k = 0.0000 0.0000 0.0000 (  4621 PWs)   bands (ev):

   -43.8434 -43.8191 -43.8104 -43.8002 -43.7797 -43.7745 -43.7293 -43.7254
   -43.6887 -43.6832  -8.6522  -8.4717  -4.9225  -4.8611  -4.8542  -4.8096
    -4.8067  -4.7938  -4.7895  -4.7861  -4.7816  -4.7690  -1.0630   1.6695
     2.2658   2.5593   2.6207   3.0481   3.0653   5.0974   8.0787   8.3221
     8.3686   8.6402   9.4181   9.4595  10.0260  11.1779  11.3100  12.0061

     the Fermi energy is     2.8336 ev

!    total energy              =    -717.23917355 Ry
     Harris-Foulkes estimate   =    -717.23917443 Ry
     estimated scf accuracy    <       0.00000154 Ry

     The total energy is the sum of the following terms:

     one-electron contribution =    -608.98606040 Ry
     hartree contribution      =     323.74376995 Ry
     xc contribution           =    -102.43055113 Ry
     ewald contribution        =    -329.56633180 Ry
     smearing contrib. (-TS)   =      -0.00000016 Ry

     total magnetization       =     2.00 Bohr mag/cell
     absolute magnetization    =     2.10 Bohr mag/cell

     convergence has been achieved in  12 iterations

     Writing output data file x0.save

     init_run     :      1.80s CPU      1.86s WALL (       1 calls)
     electrons    :      6.92s CPU      7.20s WALL (       1 calls)

     Called by init_run:
     wfcinit      :      0.06s CPU      0.07s WALL (       1 calls)
     potinit      :      0.50s CPU      0.51s WALL (       1 calls)

     Called by electrons:
     c_bands      :      2.25s CPU      2.38s WALL (      13 calls)
     sum_band     :      2.75s CPU      2.81s WALL (      13 calls)
     v_of_rho     :      0.78s CPU      0.81s WALL (      13 calls)
     newd         :      1.20s CPU      1.22s WALL (      13 calls)
     mix_rho      :      0.07s CPU      0.07s WALL (      13 calls)

     Called by c_bands:
     init_us_2    :      0.05s CPU      0.05s WALL (      54 calls)
     cegterg      :      2.13s CPU      2.26s WALL (      26 calls)

     Called by sum_band:
     sum_band:bec :      0.00s CPU      0.00s WALL (      26 calls)
     addusdens    :      2.37s CPU      2.38s WALL (      13 calls)

     Called by *egterg:
     h_psi        :      1.55s CPU      1.65s WALL (     103 calls)
     s_psi        :      0.05s CPU      0.05s WALL (     103 calls)
     g_psi        :      0.01s CPU      0.01s WALL (      75 calls)
     cdiaghg      :      0.29s CPU      0.30s WALL (      99 calls)

     Called by h_psi:
     h_psi:pot    :      1.53s CPU      1.64s WALL (     103 calls)
     h_psi:calbec :      0.06s CPU      0.06s WALL (     103 calls)
     vloc_psi     :      1.42s CPU      1.52s WALL (     103 calls)
     add_vuspsi   :      0.05s CPU      0.05s WALL (     103 calls)

     General routines
     calbec       :      0.08s CPU      0.09s WALL (     129 calls)
     fft          :      0.16s CPU      0.18s WALL (     327 calls)
     fftw         :      1.54s CPU      1.67s WALL (    5764 calls)

     Parallel routines
     fft_scatt_xy :      0.19s CPU      0.21s WALL (    6091 calls)
     fft_scatt_yz :      0.33s CPU      0.38s WALL (    6091 calls)

     PWSCF        :    10.01s CPU        10.85s WALL


   This run was terminated on:  15: 8: 5  12Jul2022            

=------------------------------------------------------------------------------=
   JOB DONE.
=------------------------------------------------------------------------------=
