
     Program PWSCF v.6.2 (svn rev. 14038) starts on 12Jul2022 at 15: 5: 8 

     This program is part of the open-source Quantum ESPRESSO suite
     for quantum simulation of materials; please cite
         "P. Giannozzi et al., J. Phys.:Condens. Matter 21 395502 (2009);
         "P. Giannozzi et al., J. Phys.:Condens. Matter 29 465901 (2017);
          URL http://www.quantum-espresso.org", 
     in publications or presentations arising from this work. More details at
     http://www.quantum-espresso.org/quote

     Parallel version (MPI), running on     4 processors

     MPI processes distributed on     1 nodes
     R & G space division:  proc/nbgrp/npool/nimage =       4
     Waiting for input...
     Reading input from standard input
Warning: card &IONS ignored
Warning: card   ION_DYNAMICS = 'VERLET', ignored
Warning: card   ION_TEMPERATURE = 'ANDERSEN', ignored
Warning: card   TEMPW = 300.00 , ignored
Warning: card   NRAISE = 1, ignored
Warning: card / ignored

     Current dimensions of program PWSCF are:
     Max number of different atomic species (ntypx) = 10
     Max number of k-points (npk) =  40000
     Max angular momentum in pseudopotentials (lmaxx) =  3
               file Cd.pbe-n-rrkjus_psl.1.0.0.UPF: wavefunction(s)  4D renormalized

     Subspace diagonalization in iterative solution of the eigenvalue problem:
     a serial algorithm will be used


     Parallelization info
     --------------------
     sticks:   dense  smooth     PW     G-vecs:    dense   smooth      PW
     Min         215     215     52                 9295     9295    1151
     Max         216     216     53                 9298     9298    1158
     Sum         863     863    211                37187    37187    4621



     bravais-lattice index     =            0
     lattice parameter (alat)  =       1.8900  a.u.
     unit-cell volume          =    1089.4295 (a.u.)^3
     number of atoms/cell      =            4
     number of atomic types    =            2
     number of electrons       =        56.00
     number of Kohn-Sham states=           40
     kinetic-energy cutoff     =      40.0000  Ry
     charge density cutoff     =     160.0000  Ry
     convergence threshold     =      1.0E-05
     mixing beta               =       0.4500
     number of iterations used =            8  plain     mixing
     Exchange-correlation      = PBE ( 1  4  3  4 0 0)

     celldm(1)=   1.890000  celldm(2)=   0.000000  celldm(3)=   0.000000
     celldm(4)=   0.000000  celldm(5)=   0.000000  celldm(6)=   0.000000

     crystal axes: (cart. coord. in units of alat)
               a(1) = (   4.716987  -0.015513  -0.002401 )  
               a(2) = (  -2.371927   4.062830  -0.000274 )  
               a(3) = (  -0.002553  -0.001388   8.436361 )  

     reciprocal axes: (cart. coord. in units 2 pi/alat)
               b(1) = (  0.212408  0.124006  0.000085 )  
               b(2) = (  0.000811  0.246607  0.000041 )  
               b(3) = (  0.000060  0.000043  0.118535 )  


     PseudoPot. # 1 for Cd read from file:
     /projects/academic/cyberwksp21/Students/jstetzler/QE_examples/Tutorials_QE_and_eQE/6_nac_workflow/step2b/PP/Cd.pbe-n-rrkjus_psl.1.0.0.UPF
     MD5 check sum: a744746c89d2344a134ead0d8ab94e7a
     Pseudo is Ultrasoft + core correction, Zval = 12.0
     Generated using "atomic" code by A. Dal Corso v.6.3
     Using radial grid of 1239 points,  6 beta functions with: 
                l(1) =   0
                l(2) =   0
                l(3) =   1
                l(4) =   1
                l(5) =   2
                l(6) =   2
     Q(r) pseudized with 0 coefficients 


     PseudoPot. # 2 for Se read from file:
     /projects/academic/cyberwksp21/Students/jstetzler/QE_examples/Tutorials_QE_and_eQE/6_nac_workflow/step2b/PP/Se.pbe-dn-rrkjus_psl.1.0.0.UPF
     MD5 check sum: 497c2ee764913186385bad8d0f9c7a86
     Pseudo is Ultrasoft + core correction, Zval = 16.0
     Generated using "atomic" code by A. Dal Corso v.6.3
     Using radial grid of 1211 points,  6 beta functions with: 
                l(1) =   0
                l(2) =   0
                l(3) =   1
                l(4) =   1
                l(5) =   2
                l(6) =   2
     Q(r) pseudized with 0 coefficients 


     atomic species   valence    mass     pseudopotential
        Cd            12.00   121.41100     Cd( 1.00)
        Se            16.00    78.96000     Se( 1.00)

     Starting magnetic structure 
     atomic species   magnetization
        Cd           0.100
        Se           0.000

     No symmetry found



   Cartesian axes

     site n.     atom                  positions (alat units)
         1           Cd  tau(   1) = (   0.0040142   2.6780125   8.7951956  )
         2           Cd  tau(   2) = (   2.3362609   1.3677428   4.5770167  )
         3           Se  tau(   3) = (  -0.0066905   2.7031622   2.8871584  )
         4           Se  tau(   4) = (   2.3498568   1.3419932   7.1034103  )

     number of k points=     1  gaussian smearing, width (Ry)=  0.0050
                       cart. coord. in units 2pi/alat
        k(    1) = (   0.0000000   0.0000000   0.0000000), wk =   1.0000000

     Dense  grid:    37187 G-vectors     FFT dimensions: (  36,  36,  72)

     Estimated max dynamical RAM per process >      40.32 MB

     Estimated total dynamical RAM >     161.26 MB
     Generating pointlists ...
     new r_m :   0.4125 (alat units)  0.7796 (a.u.) for type    1
     new r_m :   0.4125 (alat units)  0.7796 (a.u.) for type    2

     Initial potential from superposition of free atoms

     starting charge   55.99008, renormalised to   56.00000

     negative rho (up, down):  2.148E-06 1.271E-06
     Starting wfc are   36 randomized atomic wfcs +    4 random wfc

     total cpu time spent up to now is        3.8 secs

     Self-consistent Calculation

     iteration #  1     ecut=    40.00 Ry     beta= 0.45
     Davidson diagonalization with overlap
     ethr =  1.00E-02,  avg # of iterations =  7.0

     Threshold (ethr) on eigenvalues was too large:
     Diagonalizing with lowered threshold

     Davidson diagonalization with overlap
     ethr =  5.11E-04,  avg # of iterations =  1.0

     negative rho (up, down):  9.626E-06 3.120E-05

     total cpu time spent up to now is        4.8 secs

     total energy              =    -717.12556533 Ry
     Harris-Foulkes estimate   =    -717.23608565 Ry
     estimated scf accuracy    <       0.28182183 Ry

     total magnetization       =     1.45 Bohr mag/cell
     absolute magnetization    =     1.45 Bohr mag/cell

     iteration #  2     ecut=    40.00 Ry     beta= 0.45
     Davidson diagonalization with overlap
     ethr =  5.03E-04,  avg # of iterations =  2.0

     negative rho (up, down):  2.264E-05 3.747E-05

     total cpu time spent up to now is        5.4 secs

     total energy              =    -717.20777786 Ry
     Harris-Foulkes estimate   =    -717.21410606 Ry
     estimated scf accuracy    <       0.05809104 Ry

     total magnetization       =     1.68 Bohr mag/cell
     absolute magnetization    =     1.69 Bohr mag/cell

     iteration #  3     ecut=    40.00 Ry     beta= 0.45
     Davidson diagonalization with overlap
     ethr =  1.04E-04,  avg # of iterations =  4.0

     negative rho (up, down):  2.945E-05 4.406E-05

     total cpu time spent up to now is        6.0 secs

     total energy              =    -717.21453494 Ry
     Harris-Foulkes estimate   =    -717.22045235 Ry
     estimated scf accuracy    <       0.04593901 Ry

     total magnetization       =     2.00 Bohr mag/cell
     absolute magnetization    =     2.02 Bohr mag/cell

     iteration #  4     ecut=    40.00 Ry     beta= 0.45
     Davidson diagonalization with overlap
     ethr =  8.20E-05,  avg # of iterations =  4.5

     negative rho (up, down):  4.324E-05 5.911E-05

     total cpu time spent up to now is        6.5 secs

     total energy              =    -717.21826591 Ry
     Harris-Foulkes estimate   =    -717.25400725 Ry
     estimated scf accuracy    <       0.57921863 Ry

     total magnetization       =     2.00 Bohr mag/cell
     absolute magnetization    =     2.03 Bohr mag/cell

     iteration #  5     ecut=    40.00 Ry     beta= 0.45
     Davidson diagonalization with overlap
     ethr =  8.20E-05,  avg # of iterations =  1.5

     negative rho (up, down):  8.315E-05 1.085E-04

     total cpu time spent up to now is        7.1 secs

     total energy              =    -717.23798684 Ry
     Harris-Foulkes estimate   =    -717.23326155 Ry
     estimated scf accuracy    <       0.00694856 Ry

     total magnetization       =     2.00 Bohr mag/cell
     absolute magnetization    =     2.04 Bohr mag/cell

     iteration #  6     ecut=    40.00 Ry     beta= 0.45
     Davidson diagonalization with overlap
     ethr =  1.24E-05,  avg # of iterations = 11.0

     negative rho (up, down):  8.159E-05 1.096E-04

     total cpu time spent up to now is        7.7 secs

     total energy              =    -717.23878581 Ry
     Harris-Foulkes estimate   =    -717.23955177 Ry
     estimated scf accuracy    <       0.01197140 Ry

     total magnetization       =     2.00 Bohr mag/cell
     absolute magnetization    =     2.08 Bohr mag/cell

     iteration #  7     ecut=    40.00 Ry     beta= 0.45
     Davidson diagonalization with overlap
     ethr =  1.24E-05,  avg # of iterations =  1.5

     negative rho (up, down):  7.832E-05 1.089E-04

     total cpu time spent up to now is        8.3 secs

     total energy              =    -717.23928290 Ry
     Harris-Foulkes estimate   =    -717.23928610 Ry
     estimated scf accuracy    <       0.00077907 Ry

     total magnetization       =     2.00 Bohr mag/cell
     absolute magnetization    =     2.09 Bohr mag/cell

     iteration #  8     ecut=    40.00 Ry     beta= 0.45
     Davidson diagonalization with overlap
     ethr =  1.39E-06,  avg # of iterations = 10.5

     negative rho (up, down):  7.557E-05 1.084E-04

     total cpu time spent up to now is        8.9 secs

     total energy              =    -717.23926386 Ry
     Harris-Foulkes estimate   =    -717.23929494 Ry
     estimated scf accuracy    <       0.00052706 Ry

     total magnetization       =     2.00 Bohr mag/cell
     absolute magnetization    =     2.09 Bohr mag/cell

     iteration #  9     ecut=    40.00 Ry     beta= 0.45
     Davidson diagonalization with overlap
     ethr =  9.41E-07,  avg # of iterations =  1.0

     negative rho (up, down):  7.502E-05 1.088E-04

     total cpu time spent up to now is        9.4 secs

     total energy              =    -717.23929265 Ry
     Harris-Foulkes estimate   =    -717.23929920 Ry
     estimated scf accuracy    <       0.00016838 Ry

     total magnetization       =     2.00 Bohr mag/cell
     absolute magnetization    =     2.09 Bohr mag/cell

     iteration # 10     ecut=    40.00 Ry     beta= 0.45
     Davidson diagonalization with overlap
     ethr =  3.01E-07,  avg # of iterations =  1.0

     negative rho (up, down):  7.455E-05 1.094E-04

     Magnetic moment per site:
     atom:    1    charge:    2.2797    magn:    0.0084    constr:    0.0000
     atom:    2    charge:    2.2803    magn:    0.0084    constr:    0.0000
     atom:    3    charge:    8.0203    magn:    0.0271    constr:    0.0000
     atom:    4    charge:    8.0185    magn:    0.0270    constr:    0.0000

     total cpu time spent up to now is       10.0 secs

     End of self-consistent calculation

 ------ SPIN UP ------------


          k = 0.0000 0.0000 0.0000 (  4621 PWs)   bands (ev):

   -43.9247 -43.9109 -43.9063 -43.8989 -43.8981 -43.8946 -43.8699 -43.8645
   -43.8556 -43.8513  -9.3769  -9.2176  -4.9539  -4.9121  -4.9035  -4.8499
    -4.8463  -4.8141  -4.7944  -4.7914  -4.7893  -4.7854  -1.2201   1.3956
     1.6453   1.6941   2.0657   2.0821   2.1489   4.9715   7.9236   8.2139
     8.2481   8.4747   9.2108   9.2272   9.9942  10.8938  11.0166  11.9448

 ------ SPIN DOWN ----------


          k = 0.0000 0.0000 0.0000 (  4621 PWs)   bands (ev):

   -43.8320 -43.8058 -43.8013 -43.7967 -43.7892 -43.7851 -43.7134 -43.7079
   -43.6992 -43.6947  -8.6528  -8.4727  -4.9238  -4.8620  -4.8562  -4.8114
    -4.8087  -4.7931  -4.7903  -4.7892  -4.7854  -4.7717  -1.0630   1.6685
     2.2674   2.5632   2.6160   3.0473   3.0650   5.0994   8.0760   8.3303
     8.3646   8.6421   9.4358   9.4432  10.0254  11.1819  11.3041  12.0070

     the Fermi energy is     2.8309 ev

!    total energy              =    -717.23929760 Ry
     Harris-Foulkes estimate   =    -717.23929746 Ry
     estimated scf accuracy    <       0.00000066 Ry

     The total energy is the sum of the following terms:

     one-electron contribution =    -608.99564781 Ry
     hartree contribution      =     323.74575541 Ry
     xc contribution           =    -102.43048496 Ry
     ewald contribution        =    -329.55892010 Ry
     smearing contrib. (-TS)   =      -0.00000013 Ry

     total magnetization       =     2.00 Bohr mag/cell
     absolute magnetization    =     2.09 Bohr mag/cell

     convergence has been achieved in  10 iterations

     Writing output data file x0.save

     init_run     :      2.03s CPU      2.07s WALL (       1 calls)
     electrons    :      6.01s CPU      6.25s WALL (       1 calls)

     Called by init_run:
     wfcinit      :      0.06s CPU      0.07s WALL (       1 calls)
     potinit      :      0.54s CPU      0.55s WALL (       1 calls)

     Called by electrons:
     c_bands      :      2.09s CPU      2.21s WALL (      11 calls)
     sum_band     :      2.33s CPU      2.38s WALL (      11 calls)
     v_of_rho     :      0.66s CPU      0.68s WALL (      11 calls)
     newd         :      1.02s CPU      1.05s WALL (      11 calls)
     mix_rho      :      0.05s CPU      0.05s WALL (      11 calls)

     Called by c_bands:
     init_us_2    :      0.04s CPU      0.04s WALL (      46 calls)
     cegterg      :      1.99s CPU      2.10s WALL (      22 calls)

     Called by sum_band:
     sum_band:bec :      0.00s CPU      0.00s WALL (      22 calls)
     addusdens    :      2.00s CPU      2.02s WALL (      11 calls)

     Called by *egterg:
     h_psi        :      1.37s CPU      1.47s WALL (     114 calls)
     s_psi        :      0.05s CPU      0.05s WALL (     114 calls)
     g_psi        :      0.01s CPU      0.01s WALL (      90 calls)
     cdiaghg      :      0.35s CPU      0.36s WALL (     110 calls)

     Called by h_psi:
     h_psi:pot    :      1.36s CPU      1.45s WALL (     114 calls)
     h_psi:calbec :      0.06s CPU      0.06s WALL (     114 calls)
     vloc_psi     :      1.25s CPU      1.34s WALL (     114 calls)
     add_vuspsi   :      0.05s CPU      0.05s WALL (     114 calls)

     General routines
     calbec       :      0.08s CPU      0.08s WALL (     136 calls)
     fft          :      0.13s CPU      0.16s WALL (     277 calls)
     fftw         :      1.35s CPU      1.45s WALL (    4990 calls)

     Parallel routines
     fft_scatt_xy :      0.17s CPU      0.18s WALL (    5267 calls)
     fft_scatt_yz :      0.29s CPU      0.33s WALL (    5267 calls)

     PWSCF        :     9.58s CPU        10.35s WALL


   This run was terminated on:  15: 5:18  12Jul2022            

=------------------------------------------------------------------------------=
   JOB DONE.
=------------------------------------------------------------------------------=
