
     Program PWSCF v.6.2 (svn rev. 14038) starts on 12Jul2022 at 15: 5:32 

     This program is part of the open-source Quantum ESPRESSO suite
     for quantum simulation of materials; please cite
         "P. Giannozzi et al., J. Phys.:Condens. Matter 21 395502 (2009);
         "P. Giannozzi et al., J. Phys.:Condens. Matter 29 465901 (2017);
          URL http://www.quantum-espresso.org", 
     in publications or presentations arising from this work. More details at
     http://www.quantum-espresso.org/quote

     Parallel version (MPI), running on     4 processors

     MPI processes distributed on     1 nodes
     R & G space division:  proc/nbgrp/npool/nimage =       4
     Waiting for input...
     Reading input from standard input
Warning: card &IONS ignored
Warning: card   ION_DYNAMICS = 'VERLET', ignored
Warning: card   ION_TEMPERATURE = 'ANDERSEN', ignored
Warning: card   TEMPW = 300.00 , ignored
Warning: card   NRAISE = 1, ignored
Warning: card / ignored

     Current dimensions of program PWSCF are:
     Max number of different atomic species (ntypx) = 10
     Max number of k-points (npk) =  40000
     Max angular momentum in pseudopotentials (lmaxx) =  3
               file Cd.pbe-n-rrkjus_psl.1.0.0.UPF: wavefunction(s)  4D renormalized

     Subspace diagonalization in iterative solution of the eigenvalue problem:
     a serial algorithm will be used


     Parallelization info
     --------------------
     sticks:   dense  smooth     PW     G-vecs:    dense   smooth      PW
     Min         215     215     52                 9295     9295    1151
     Max         216     216     53                 9298     9298    1158
     Sum         863     863    211                37187    37187    4621



     bravais-lattice index     =            0
     lattice parameter (alat)  =       1.8900  a.u.
     unit-cell volume          =    1089.4295 (a.u.)^3
     number of atoms/cell      =            4
     number of atomic types    =            2
     number of electrons       =        56.00
     number of Kohn-Sham states=           40
     kinetic-energy cutoff     =      40.0000  Ry
     charge density cutoff     =     160.0000  Ry
     convergence threshold     =      1.0E-05
     mixing beta               =       0.4500
     number of iterations used =            8  plain     mixing
     Exchange-correlation      = PBE ( 1  4  3  4 0 0)

     celldm(1)=   1.890000  celldm(2)=   0.000000  celldm(3)=   0.000000
     celldm(4)=   0.000000  celldm(5)=   0.000000  celldm(6)=   0.000000

     crystal axes: (cart. coord. in units of alat)
               a(1) = (   4.716987  -0.015513  -0.002401 )  
               a(2) = (  -2.371927   4.062830  -0.000274 )  
               a(3) = (  -0.002553  -0.001388   8.436361 )  

     reciprocal axes: (cart. coord. in units 2 pi/alat)
               b(1) = (  0.212408  0.124006  0.000085 )  
               b(2) = (  0.000811  0.246607  0.000041 )  
               b(3) = (  0.000060  0.000043  0.118535 )  


     PseudoPot. # 1 for Cd read from file:
     /projects/academic/cyberwksp21/Students/jstetzler/QE_examples/Tutorials_QE_and_eQE/6_nac_workflow/step2b/PP/Cd.pbe-n-rrkjus_psl.1.0.0.UPF
     MD5 check sum: a744746c89d2344a134ead0d8ab94e7a
     Pseudo is Ultrasoft + core correction, Zval = 12.0
     Generated using "atomic" code by A. Dal Corso v.6.3
     Using radial grid of 1239 points,  6 beta functions with: 
                l(1) =   0
                l(2) =   0
                l(3) =   1
                l(4) =   1
                l(5) =   2
                l(6) =   2
     Q(r) pseudized with 0 coefficients 


     PseudoPot. # 2 for Se read from file:
     /projects/academic/cyberwksp21/Students/jstetzler/QE_examples/Tutorials_QE_and_eQE/6_nac_workflow/step2b/PP/Se.pbe-dn-rrkjus_psl.1.0.0.UPF
     MD5 check sum: 497c2ee764913186385bad8d0f9c7a86
     Pseudo is Ultrasoft + core correction, Zval = 16.0
     Generated using "atomic" code by A. Dal Corso v.6.3
     Using radial grid of 1211 points,  6 beta functions with: 
                l(1) =   0
                l(2) =   0
                l(3) =   1
                l(4) =   1
                l(5) =   2
                l(6) =   2
     Q(r) pseudized with 0 coefficients 


     atomic species   valence    mass     pseudopotential
        Cd            12.00   121.41100     Cd( 1.00)
        Se            16.00    78.96000     Se( 1.00)

     Starting magnetic structure 
     atomic species   magnetization
        Cd           0.100
        Se           0.000

     No symmetry found



   Cartesian axes

     site n.     atom                  positions (alat units)
         1           Cd  tau(   1) = (   0.0080585   2.6753765   8.8062179  )
         2           Cd  tau(   2) = (   2.3353197   1.3601358   4.5656944  )
         3           Se  tau(   3) = (   0.0002008   2.7129536   2.8876410  )
         4           Se  tau(   4) = (   2.3381941   1.3479518   7.1033891  )

     number of k points=     1  gaussian smearing, width (Ry)=  0.0050
                       cart. coord. in units 2pi/alat
        k(    1) = (   0.0000000   0.0000000   0.0000000), wk =   1.0000000

     Dense  grid:    37187 G-vectors     FFT dimensions: (  36,  36,  72)

     Estimated max dynamical RAM per process >      40.32 MB

     Estimated total dynamical RAM >     161.26 MB
     Generating pointlists ...
     new r_m :   0.4125 (alat units)  0.7796 (a.u.) for type    1
     new r_m :   0.4125 (alat units)  0.7796 (a.u.) for type    2

     Initial potential from superposition of free atoms

     starting charge   55.99008, renormalised to   56.00000

     negative rho (up, down):  1.757E-06 9.507E-07
     Starting wfc are   36 randomized atomic wfcs +    4 random wfc

     total cpu time spent up to now is        3.4 secs

     Self-consistent Calculation

     iteration #  1     ecut=    40.00 Ry     beta= 0.45
     Davidson diagonalization with overlap
     ethr =  1.00E-02,  avg # of iterations =  7.0

     Threshold (ethr) on eigenvalues was too large:
     Diagonalizing with lowered threshold

     Davidson diagonalization with overlap
     ethr =  5.12E-04,  avg # of iterations =  1.0

     negative rho (up, down):  1.186E-05 3.114E-05

     total cpu time spent up to now is        4.4 secs

     total energy              =    -717.12512480 Ry
     Harris-Foulkes estimate   =    -717.23594126 Ry
     estimated scf accuracy    <       0.28227670 Ry

     total magnetization       =     1.45 Bohr mag/cell
     absolute magnetization    =     1.45 Bohr mag/cell

     iteration #  2     ecut=    40.00 Ry     beta= 0.45
     Davidson diagonalization with overlap
     ethr =  5.04E-04,  avg # of iterations =  2.0

     negative rho (up, down):  2.058E-05 3.462E-05

     total cpu time spent up to now is        5.0 secs

     total energy              =    -717.16212830 Ry
     Harris-Foulkes estimate   =    -717.21726829 Ry
     estimated scf accuracy    <       0.17571463 Ry

     total magnetization       =     1.66 Bohr mag/cell
     absolute magnetization    =     1.67 Bohr mag/cell

     iteration #  3     ecut=    40.00 Ry     beta= 0.45
     Davidson diagonalization with overlap
     ethr =  3.14E-04,  avg # of iterations =  6.0

     negative rho (up, down):  2.596E-05 4.095E-05

     total cpu time spent up to now is        5.7 secs

     total energy              =    -717.18883201 Ry
     Harris-Foulkes estimate   =    -717.32554725 Ry
     estimated scf accuracy    <       1.09052076 Ry

     total magnetization       =     1.95 Bohr mag/cell
     absolute magnetization    =     1.98 Bohr mag/cell

     iteration #  4     ecut=    40.00 Ry     beta= 0.45
     Davidson diagonalization with overlap
     ethr =  3.14E-04,  avg # of iterations =  2.0

     negative rho (up, down):  4.470E-05 6.255E-05

     total cpu time spent up to now is        6.2 secs

     total energy              =    -717.22744478 Ry
     Harris-Foulkes estimate   =    -717.22242791 Ry
     estimated scf accuracy    <       0.04349994 Ry

     total magnetization       =     2.00 Bohr mag/cell
     absolute magnetization    =     2.02 Bohr mag/cell

     iteration #  5     ecut=    40.00 Ry     beta= 0.45
     Davidson diagonalization with overlap
     ethr =  7.77E-05,  avg # of iterations =  2.5

     negative rho (up, down):  6.207E-05 8.386E-05

     total cpu time spent up to now is        6.8 secs

     total energy              =    -717.22669701 Ry
     Harris-Foulkes estimate   =    -717.23786662 Ry
     estimated scf accuracy    <       0.16068870 Ry

     total magnetization       =     2.00 Bohr mag/cell
     absolute magnetization    =     2.04 Bohr mag/cell

     iteration #  6     ecut=    40.00 Ry     beta= 0.45
     Davidson diagonalization with overlap
     ethr =  7.77E-05,  avg # of iterations =  1.0

     negative rho (up, down):  8.398E-05 1.119E-04

     total cpu time spent up to now is        7.3 secs

     total energy              =    -717.23676375 Ry
     Harris-Foulkes estimate   =    -717.23969436 Ry
     estimated scf accuracy    <       0.08835797 Ry

     total magnetization       =     2.00 Bohr mag/cell
     absolute magnetization    =     2.06 Bohr mag/cell

     iteration #  7     ecut=    40.00 Ry     beta= 0.45
     Davidson diagonalization with overlap
     ethr =  7.77E-05,  avg # of iterations =  1.0

     negative rho (up, down):  7.863E-05 1.118E-04

     total cpu time spent up to now is        7.9 secs

     total energy              =    -717.23907366 Ry
     Harris-Foulkes estimate   =    -717.23904507 Ry
     estimated scf accuracy    <       0.00027705 Ry

     total magnetization       =     2.00 Bohr mag/cell
     absolute magnetization    =     2.08 Bohr mag/cell

     iteration #  8     ecut=    40.00 Ry     beta= 0.45
     Davidson diagonalization with overlap
     ethr =  4.95E-07,  avg # of iterations = 10.0

     negative rho (up, down):  7.773E-05 1.120E-04

     total cpu time spent up to now is        8.6 secs

     total energy              =    -717.23914420 Ry
     Harris-Foulkes estimate   =    -717.23912996 Ry
     estimated scf accuracy    <       0.00024013 Ry

     total magnetization       =     2.00 Bohr mag/cell
     absolute magnetization    =     2.09 Bohr mag/cell

     iteration #  9     ecut=    40.00 Ry     beta= 0.45
     Davidson diagonalization with overlap
     ethr =  4.29E-07,  avg # of iterations =  1.0

     negative rho (up, down):  7.716E-05 1.126E-04

     total cpu time spent up to now is        9.1 secs

     total energy              =    -717.23914118 Ry
     Harris-Foulkes estimate   =    -717.23914815 Ry
     estimated scf accuracy    <       0.00015868 Ry

     total magnetization       =     2.00 Bohr mag/cell
     absolute magnetization    =     2.09 Bohr mag/cell

     iteration # 10     ecut=    40.00 Ry     beta= 0.45
     Davidson diagonalization with overlap
     ethr =  2.83E-07,  avg # of iterations =  1.0

     negative rho (up, down):  7.728E-05 1.128E-04

     total cpu time spent up to now is        9.6 secs

     total energy              =    -717.23914934 Ry
     Harris-Foulkes estimate   =    -717.23915278 Ry
     estimated scf accuracy    <       0.00005177 Ry

     total magnetization       =     2.00 Bohr mag/cell
     absolute magnetization    =     2.09 Bohr mag/cell

     iteration # 11     ecut=    40.00 Ry     beta= 0.45
     Davidson diagonalization with overlap
     ethr =  9.24E-08,  avg # of iterations =  1.0

     negative rho (up, down):  7.713E-05 1.131E-04

     Magnetic moment per site:
     atom:    1    charge:    2.2838    magn:    0.0084    constr:    0.0000
     atom:    2    charge:    2.2797    magn:    0.0084    constr:    0.0000
     atom:    3    charge:    8.0264    magn:    0.0266    constr:    0.0000
     atom:    4    charge:    8.0250    magn:    0.0275    constr:    0.0000

     total cpu time spent up to now is       10.1 secs

     End of self-consistent calculation

 ------ SPIN UP ------------


          k = 0.0000 0.0000 0.0000 (  4621 PWs)   bands (ev):

   -43.9352 -43.9287 -43.9175 -43.8938 -43.8908 -43.8847 -43.8831 -43.8812
   -43.8452 -43.8396  -9.3784  -9.2192  -4.9537  -4.9133  -4.9027  -4.8496
    -4.8450  -4.8134  -4.7965  -4.7937  -4.7860  -4.7818  -1.2195   1.3958
     1.6399   1.6948   2.0640   2.0812   2.1493   4.9716   7.9246   8.2094
     8.2530   8.4749   9.1982   9.2406   9.9952  10.8900  11.0215  11.9444

 ------ SPIN DOWN ----------


          k = 0.0000 0.0000 0.0000 (  4621 PWs)   bands (ev):

   -43.8411 -43.8164 -43.8078 -43.8019 -43.7818 -43.7762 -43.7268 -43.7228
   -43.6905 -43.6850  -8.6535  -8.4723  -4.9241  -4.8632  -4.8562  -4.8110
    -4.8080  -4.7964  -4.7923  -4.7867  -4.7819  -4.7705  -1.0631   1.6687
     2.2666   2.5599   2.6195   3.0477   3.0651   5.0987   8.0775   8.3244
     8.3688   8.6419   9.4167   9.4623  10.0263  11.1789  11.3088  12.0065

     the Fermi energy is     2.8328 ev

!    total energy              =    -717.23914568 Ry
     Harris-Foulkes estimate   =    -717.23915215 Ry
     estimated scf accuracy    <       0.00000874 Ry

     The total energy is the sum of the following terms:

     one-electron contribution =    -609.00553933 Ry
     hartree contribution      =     323.75360732 Ry
     xc contribution           =    -102.43097204 Ry
     ewald contribution        =    -329.55624147 Ry
     smearing contrib. (-TS)   =      -0.00000015 Ry

     total magnetization       =     2.00 Bohr mag/cell
     absolute magnetization    =     2.09 Bohr mag/cell

     convergence has been achieved in  11 iterations

     Writing output data file x0.save

     init_run     :      1.93s CPU      1.99s WALL (       1 calls)
     electrons    :      6.37s CPU      6.76s WALL (       1 calls)

     Called by init_run:
     wfcinit      :      0.06s CPU      0.07s WALL (       1 calls)
     potinit      :      0.54s CPU      0.54s WALL (       1 calls)

     Called by electrons:
     c_bands      :      2.10s CPU      2.31s WALL (      12 calls)
     sum_band     :      2.54s CPU      2.60s WALL (      12 calls)
     v_of_rho     :      0.73s CPU      0.76s WALL (      12 calls)
     newd         :      1.11s CPU      1.15s WALL (      12 calls)
     mix_rho      :      0.05s CPU      0.05s WALL (      12 calls)

     Called by c_bands:
     init_us_2    :      0.04s CPU      0.04s WALL (      50 calls)
     cegterg      :      2.00s CPU      2.20s WALL (      24 calls)

     Called by sum_band:
     sum_band:bec :      0.00s CPU      0.00s WALL (      24 calls)
     addusdens    :      2.16s CPU      2.19s WALL (      12 calls)

     Called by *egterg:
     h_psi        :      1.46s CPU      1.64s WALL (      97 calls)
     s_psi        :      0.05s CPU      0.05s WALL (      97 calls)
     g_psi        :      0.01s CPU      0.01s WALL (      71 calls)
     cdiaghg      :      0.27s CPU      0.29s WALL (      93 calls)

     Called by h_psi:
     h_psi:pot    :      1.45s CPU      1.63s WALL (      97 calls)
     h_psi:calbec :      0.06s CPU      0.06s WALL (      97 calls)
     vloc_psi     :      1.35s CPU      1.52s WALL (      97 calls)
     add_vuspsi   :      0.05s CPU      0.05s WALL (      97 calls)

     General routines
     calbec       :      0.08s CPU      0.08s WALL (     121 calls)
     fft          :      0.16s CPU      0.20s WALL (     302 calls)
     fftw         :      1.48s CPU      1.66s WALL (    5372 calls)

     Parallel routines
     fft_scatt_xy :      0.18s CPU      0.20s WALL (    5674 calls)
     fft_scatt_yz :      0.42s CPU      0.49s WALL (    5674 calls)

     PWSCF        :     9.66s CPU        15.78s WALL


   This run was terminated on:  15: 5:47  12Jul2022            

=------------------------------------------------------------------------------=
   JOB DONE.
=------------------------------------------------------------------------------=
