
     Program PWSCF v.6.2 (svn rev. 14038) starts on 12Jul2022 at 15: 7: 0 

     This program is part of the open-source Quantum ESPRESSO suite
     for quantum simulation of materials; please cite
         "P. Giannozzi et al., J. Phys.:Condens. Matter 21 395502 (2009);
         "P. Giannozzi et al., J. Phys.:Condens. Matter 29 465901 (2017);
          URL http://www.quantum-espresso.org", 
     in publications or presentations arising from this work. More details at
     http://www.quantum-espresso.org/quote

     Parallel version (MPI), running on     4 processors

     MPI processes distributed on     1 nodes
     R & G space division:  proc/nbgrp/npool/nimage =       4
     Waiting for input...
     Reading input from standard input
Warning: card &IONS ignored
Warning: card   ION_DYNAMICS = 'VERLET', ignored
Warning: card   ION_TEMPERATURE = 'ANDERSEN', ignored
Warning: card   TEMPW = 300.00 , ignored
Warning: card   NRAISE = 1, ignored
Warning: card / ignored

     Current dimensions of program PWSCF are:
     Max number of different atomic species (ntypx) = 10
     Max number of k-points (npk) =  40000
     Max angular momentum in pseudopotentials (lmaxx) =  3
               file Cd.pbe-n-rrkjus_psl.1.0.0.UPF: wavefunction(s)  4D renormalized

     Subspace diagonalization in iterative solution of the eigenvalue problem:
     a serial algorithm will be used


     Parallelization info
     --------------------
     sticks:   dense  smooth     PW     G-vecs:    dense   smooth      PW
     Min         215     215     52                 9295     9295    1151
     Max         216     216     53                 9298     9298    1158
     Sum         863     863    211                37187    37187    4621



     bravais-lattice index     =            0
     lattice parameter (alat)  =       1.8900  a.u.
     unit-cell volume          =    1089.4295 (a.u.)^3
     number of atoms/cell      =            4
     number of atomic types    =            2
     number of electrons       =        56.00
     number of Kohn-Sham states=           40
     kinetic-energy cutoff     =      40.0000  Ry
     charge density cutoff     =     160.0000  Ry
     convergence threshold     =      1.0E-05
     mixing beta               =       0.4500
     number of iterations used =            8  plain     mixing
     Exchange-correlation      = PBE ( 1  4  3  4 0 0)

     celldm(1)=   1.890000  celldm(2)=   0.000000  celldm(3)=   0.000000
     celldm(4)=   0.000000  celldm(5)=   0.000000  celldm(6)=   0.000000

     crystal axes: (cart. coord. in units of alat)
               a(1) = (   4.716987  -0.015513  -0.002401 )  
               a(2) = (  -2.371927   4.062830  -0.000274 )  
               a(3) = (  -0.002553  -0.001388   8.436361 )  

     reciprocal axes: (cart. coord. in units 2 pi/alat)
               b(1) = (  0.212408  0.124006  0.000085 )  
               b(2) = (  0.000811  0.246607  0.000041 )  
               b(3) = (  0.000060  0.000043  0.118535 )  


     PseudoPot. # 1 for Cd read from file:
     /projects/academic/cyberwksp21/Students/jstetzler/QE_examples/Tutorials_QE_and_eQE/6_nac_workflow/step2b/PP/Cd.pbe-n-rrkjus_psl.1.0.0.UPF
     MD5 check sum: a744746c89d2344a134ead0d8ab94e7a
     Pseudo is Ultrasoft + core correction, Zval = 12.0
     Generated using "atomic" code by A. Dal Corso v.6.3
     Using radial grid of 1239 points,  6 beta functions with: 
                l(1) =   0
                l(2) =   0
                l(3) =   1
                l(4) =   1
                l(5) =   2
                l(6) =   2
     Q(r) pseudized with 0 coefficients 


     PseudoPot. # 2 for Se read from file:
     /projects/academic/cyberwksp21/Students/jstetzler/QE_examples/Tutorials_QE_and_eQE/6_nac_workflow/step2b/PP/Se.pbe-dn-rrkjus_psl.1.0.0.UPF
     MD5 check sum: 497c2ee764913186385bad8d0f9c7a86
     Pseudo is Ultrasoft + core correction, Zval = 16.0
     Generated using "atomic" code by A. Dal Corso v.6.3
     Using radial grid of 1211 points,  6 beta functions with: 
                l(1) =   0
                l(2) =   0
                l(3) =   1
                l(4) =   1
                l(5) =   2
                l(6) =   2
     Q(r) pseudized with 0 coefficients 


     atomic species   valence    mass     pseudopotential
        Cd            12.00   121.41100     Cd( 1.00)
        Se            16.00    78.96000     Se( 1.00)

     Starting magnetic structure 
     atomic species   magnetization
        Cd           0.100
        Se           0.000

     No symmetry found



   Cartesian axes

     site n.     atom                  positions (alat units)
         1           Cd  tau(   1) = (   0.0117894   2.6716441   8.8066707  )
         2           Cd  tau(   2) = (   2.3325484   1.3629970   4.5635363  )
         3           Se  tau(   3) = (  -0.0034325   2.7168600   2.8856886  )
         4           Se  tau(   4) = (   2.3403518   1.3453849   7.1079634  )

     number of k points=     1  gaussian smearing, width (Ry)=  0.0050
                       cart. coord. in units 2pi/alat
        k(    1) = (   0.0000000   0.0000000   0.0000000), wk =   1.0000000

     Dense  grid:    37187 G-vectors     FFT dimensions: (  36,  36,  72)

     Estimated max dynamical RAM per process >      40.32 MB

     Estimated total dynamical RAM >     161.26 MB
     Generating pointlists ...
     new r_m :   0.4125 (alat units)  0.7796 (a.u.) for type    1
     new r_m :   0.4125 (alat units)  0.7796 (a.u.) for type    2

     Initial potential from superposition of free atoms

     starting charge   55.99008, renormalised to   56.00000

     negative rho (up, down):  9.595E-07 5.414E-07
     Starting wfc are   36 randomized atomic wfcs +    4 random wfc

     total cpu time spent up to now is        3.5 secs

     Self-consistent Calculation

     iteration #  1     ecut=    40.00 Ry     beta= 0.45
     Davidson diagonalization with overlap
     ethr =  1.00E-02,  avg # of iterations =  7.0

     Threshold (ethr) on eigenvalues was too large:
     Diagonalizing with lowered threshold

     Davidson diagonalization with overlap
     ethr =  5.12E-04,  avg # of iterations =  1.0

     negative rho (up, down):  9.688E-06 2.842E-05

     total cpu time spent up to now is        4.5 secs

     total energy              =    -717.12500876 Ry
     Harris-Foulkes estimate   =    -717.23570770 Ry
     estimated scf accuracy    <       0.28205591 Ry

     total magnetization       =     1.44 Bohr mag/cell
     absolute magnetization    =     1.45 Bohr mag/cell

     iteration #  2     ecut=    40.00 Ry     beta= 0.45
     Davidson diagonalization with overlap
     ethr =  5.04E-04,  avg # of iterations =  2.0

     negative rho (up, down):  1.658E-05 2.980E-05

     total cpu time spent up to now is        5.0 secs

     total energy              =    -717.15078514 Ry
     Harris-Foulkes estimate   =    -717.21835105 Ry
     estimated scf accuracy    <       0.21509249 Ry

     total magnetization       =     1.65 Bohr mag/cell
     absolute magnetization    =     1.67 Bohr mag/cell

     iteration #  3     ecut=    40.00 Ry     beta= 0.45
     Davidson diagonalization with overlap
     ethr =  3.84E-04,  avg # of iterations =  4.0

     negative rho (up, down):  2.197E-05 3.526E-05

     total cpu time spent up to now is        5.6 secs

     total energy              =    -717.19006952 Ry
     Harris-Foulkes estimate   =    -717.33400512 Ry
     estimated scf accuracy    <       1.13194200 Ry

     total magnetization       =     1.93 Bohr mag/cell
     absolute magnetization    =     1.96 Bohr mag/cell

     iteration #  4     ecut=    40.00 Ry     beta= 0.45
     Davidson diagonalization with overlap
     ethr =  3.84E-04,  avg # of iterations =  1.5

     negative rho (up, down):  3.920E-05 5.531E-05

     total cpu time spent up to now is        6.1 secs

     total energy              =    -717.22211734 Ry
     Harris-Foulkes estimate   =    -717.22305351 Ry
     estimated scf accuracy    <       0.08033939 Ry

     total magnetization       =     2.00 Bohr mag/cell
     absolute magnetization    =     2.02 Bohr mag/cell

     iteration #  5     ecut=    40.00 Ry     beta= 0.45
     Davidson diagonalization with overlap
     ethr =  1.43E-04,  avg # of iterations =  2.5

     negative rho (up, down):  5.373E-05 7.391E-05

     total cpu time spent up to now is        6.7 secs

     total energy              =    -717.22381068 Ry
     Harris-Foulkes estimate   =    -717.24144611 Ry
     estimated scf accuracy    <       0.26587309 Ry

     total magnetization       =     2.00 Bohr mag/cell
     absolute magnetization    =     2.04 Bohr mag/cell

     iteration #  6     ecut=    40.00 Ry     beta= 0.45
     Davidson diagonalization with overlap
     ethr =  1.43E-04,  avg # of iterations =  1.0

     negative rho (up, down):  7.683E-05 1.066E-04

     total cpu time spent up to now is        7.2 secs

     total energy              =    -717.23787278 Ry
     Harris-Foulkes estimate   =    -717.23777552 Ry
     estimated scf accuracy    <       0.04443453 Ry

     total magnetization       =     2.00 Bohr mag/cell
     absolute magnetization    =     2.05 Bohr mag/cell

     iteration #  7     ecut=    40.00 Ry     beta= 0.45
     Davidson diagonalization with overlap
     ethr =  7.93E-05,  avg # of iterations =  1.0

     negative rho (up, down):  7.247E-05 1.075E-04

     total cpu time spent up to now is        7.7 secs

     total energy              =    -717.23883519 Ry
     Harris-Foulkes estimate   =    -717.23890170 Ry
     estimated scf accuracy    <       0.00161412 Ry

     total magnetization       =     2.00 Bohr mag/cell
     absolute magnetization    =     2.08 Bohr mag/cell

     iteration #  8     ecut=    40.00 Ry     beta= 0.45
     Davidson diagonalization with overlap
     ethr =  2.88E-06,  avg # of iterations = 14.0

     negative rho (up, down):  7.169E-05 1.080E-04

     total cpu time spent up to now is        8.4 secs

     total energy              =    -717.23896110 Ry
     Harris-Foulkes estimate   =    -717.23898147 Ry
     estimated scf accuracy    <       0.00021451 Ry

     total magnetization       =     2.00 Bohr mag/cell
     absolute magnetization    =     2.09 Bohr mag/cell

     iteration #  9     ecut=    40.00 Ry     beta= 0.45
     Davidson diagonalization with overlap
     ethr =  3.83E-07,  avg # of iterations =  2.0

     negative rho (up, down):  7.139E-05 1.085E-04

     total cpu time spent up to now is        9.0 secs

     total energy              =    -717.23897049 Ry
     Harris-Foulkes estimate   =    -717.23902346 Ry
     estimated scf accuracy    <       0.00102706 Ry

     total magnetization       =     2.00 Bohr mag/cell
     absolute magnetization    =     2.09 Bohr mag/cell

     iteration # 10     ecut=    40.00 Ry     beta= 0.45
     Davidson diagonalization with overlap
     ethr =  3.83E-07,  avg # of iterations =  1.0

     negative rho (up, down):  7.136E-05 1.087E-04

     total cpu time spent up to now is        9.5 secs

     total energy              =    -717.23900795 Ry
     Harris-Foulkes estimate   =    -717.23900887 Ry
     estimated scf accuracy    <       0.00003787 Ry

     total magnetization       =     2.00 Bohr mag/cell
     absolute magnetization    =     2.09 Bohr mag/cell

     iteration # 11     ecut=    40.00 Ry     beta= 0.45
     Davidson diagonalization with overlap
     ethr =  6.76E-08,  avg # of iterations =  1.0

     negative rho (up, down):  7.119E-05 1.088E-04

     Magnetic moment per site:
     atom:    1    charge:    2.2883    magn:    0.0085    constr:    0.0000
     atom:    2    charge:    2.2798    magn:    0.0084    constr:    0.0000
     atom:    3    charge:    8.0258    magn:    0.0266    constr:    0.0000
     atom:    4    charge:    8.0267    magn:    0.0275    constr:    0.0000

     total cpu time spent up to now is       10.0 secs

     End of self-consistent calculation

 ------ SPIN UP ------------


          k = 0.0000 0.0000 0.0000 (  4621 PWs)   bands (ev):

   -43.9360 -43.9305 -43.9182 -43.8915 -43.8881 -43.8863 -43.8830 -43.8798
   -43.8417 -43.8361  -9.3761  -9.2171  -4.9532  -4.9149  -4.9033  -4.8478
    -4.8425  -4.8114  -4.8003  -4.7976  -4.7807  -4.7760  -1.2174   1.3996
     1.6400   1.6951   2.0638   2.0817   2.1480   4.9686   7.9207   8.2151
     8.2494   8.4715   9.1957   9.2394   9.9957  10.8906  11.0239  11.9446

 ------ SPIN DOWN ----------


          k = 0.0000 0.0000 0.0000 (  4621 PWs)   bands (ev):

   -43.8414 -43.8177 -43.8083 -43.7996 -43.7791 -43.7734 -43.7283 -43.7243
   -43.6874 -43.6818  -8.6512  -8.4690  -4.9239  -4.8650  -4.8575  -4.8103
    -4.8064  -4.7999  -4.7960  -4.7816  -4.7767  -4.7685  -1.0608   1.6728
     2.2646   2.5608   2.6204   3.0475   3.0656   5.0959   8.0732   8.3308
     8.3656   8.6384   9.4154   9.4599  10.0276  11.1797  11.3111  12.0066

     the Fermi energy is     2.8332 ev

!    total energy              =    -717.23900994 Ry
     Harris-Foulkes estimate   =    -717.23900960 Ry
     estimated scf accuracy    <       0.00000114 Ry

     The total energy is the sum of the following terms:

     one-electron contribution =    -608.94955987 Ry
     hartree contribution      =     323.72696590 Ry
     xc contribution           =    -102.43047450 Ry
     ewald contribution        =    -329.58594131 Ry
     smearing contrib. (-TS)   =      -0.00000016 Ry

     total magnetization       =     2.00 Bohr mag/cell
     absolute magnetization    =     2.09 Bohr mag/cell

     convergence has been achieved in  11 iterations

     Writing output data file x0.save

     init_run     :      1.91s CPU      1.98s WALL (       1 calls)
     electrons    :      6.13s CPU      6.56s WALL (       1 calls)

     Called by init_run:
     wfcinit      :      0.06s CPU      0.07s WALL (       1 calls)
     potinit      :      0.53s CPU      0.54s WALL (       1 calls)

     Called by electrons:
     c_bands      :      2.03s CPU      2.23s WALL (      12 calls)
     sum_band     :      2.42s CPU      2.54s WALL (      12 calls)
     v_of_rho     :      0.71s CPU      0.74s WALL (      12 calls)
     newd         :      1.07s CPU      1.10s WALL (      12 calls)
     mix_rho      :      0.05s CPU      0.05s WALL (      12 calls)

     Called by c_bands:
     init_us_2    :      0.04s CPU      0.04s WALL (      50 calls)
     cegterg      :      1.93s CPU      2.12s WALL (      24 calls)

     Called by sum_band:
     sum_band:bec :      0.00s CPU      0.00s WALL (      24 calls)
     addusdens    :      2.08s CPU      2.14s WALL (      12 calls)

     Called by *egterg:
     h_psi        :      1.41s CPU      1.58s WALL (     102 calls)
     s_psi        :      0.04s CPU      0.04s WALL (     102 calls)
     g_psi        :      0.01s CPU      0.01s WALL (      76 calls)
     cdiaghg      :      0.29s CPU      0.30s WALL (      98 calls)

     Called by h_psi:
     h_psi:pot    :      1.40s CPU      1.58s WALL (     102 calls)
     h_psi:calbec :      0.05s CPU      0.06s WALL (     102 calls)
     vloc_psi     :      1.31s CPU      1.47s WALL (     102 calls)
     add_vuspsi   :      0.05s CPU      0.05s WALL (     102 calls)

     General routines
     calbec       :      0.07s CPU      0.08s WALL (     126 calls)
     fft          :      0.18s CPU      0.26s WALL (     302 calls)
     fftw         :      1.42s CPU      1.61s WALL (    5324 calls)

     Parallel routines
     fft_scatt_xy :      0.17s CPU      0.19s WALL (    5626 calls)
     fft_scatt_yz :      0.42s CPU      0.54s WALL (    5626 calls)

     PWSCF        :     9.43s CPU        10.38s WALL


   This run was terminated on:  15: 7:10  12Jul2022            

=------------------------------------------------------------------------------=
   JOB DONE.
=------------------------------------------------------------------------------=
