
     Program PWSCF v.6.2 (svn rev. 14038) starts on 12Jul2022 at 15: 7:57 

     This program is part of the open-source Quantum ESPRESSO suite
     for quantum simulation of materials; please cite
         "P. Giannozzi et al., J. Phys.:Condens. Matter 21 395502 (2009);
         "P. Giannozzi et al., J. Phys.:Condens. Matter 29 465901 (2017);
          URL http://www.quantum-espresso.org", 
     in publications or presentations arising from this work. More details at
     http://www.quantum-espresso.org/quote

     Parallel version (MPI), running on     4 processors

     MPI processes distributed on     1 nodes
     R & G space division:  proc/nbgrp/npool/nimage =       4
     Waiting for input...
     Reading input from standard input
Warning: card &IONS ignored
Warning: card   ION_DYNAMICS = 'VERLET', ignored
Warning: card   ION_TEMPERATURE = 'ANDERSEN', ignored
Warning: card   TEMPW = 300.00 , ignored
Warning: card   NRAISE = 1, ignored
Warning: card / ignored

     Current dimensions of program PWSCF are:
     Max number of different atomic species (ntypx) = 10
     Max number of k-points (npk) =  40000
     Max angular momentum in pseudopotentials (lmaxx) =  3
               file Cd.pbe-n-rrkjus_psl.1.0.0.UPF: wavefunction(s)  4D renormalized

     Subspace diagonalization in iterative solution of the eigenvalue problem:
     a serial algorithm will be used


     Parallelization info
     --------------------
     sticks:   dense  smooth     PW     G-vecs:    dense   smooth      PW
     Min         215     215     52                 9295     9295    1151
     Max         216     216     53                 9298     9298    1158
     Sum         863     863    211                37187    37187    4621



     bravais-lattice index     =            0
     lattice parameter (alat)  =       1.8900  a.u.
     unit-cell volume          =    1089.4295 (a.u.)^3
     number of atoms/cell      =            4
     number of atomic types    =            2
     number of electrons       =        56.00
     number of Kohn-Sham states=           40
     kinetic-energy cutoff     =      40.0000  Ry
     charge density cutoff     =     160.0000  Ry
     convergence threshold     =      1.0E-05
     mixing beta               =       0.4500
     number of iterations used =            8  plain     mixing
     Exchange-correlation      = PBE ( 1  4  3  4 0 0)

     celldm(1)=   1.890000  celldm(2)=   0.000000  celldm(3)=   0.000000
     celldm(4)=   0.000000  celldm(5)=   0.000000  celldm(6)=   0.000000

     crystal axes: (cart. coord. in units of alat)
               a(1) = (   4.716987  -0.015513  -0.002401 )  
               a(2) = (  -2.371927   4.062830  -0.000274 )  
               a(3) = (  -0.002553  -0.001388   8.436361 )  

     reciprocal axes: (cart. coord. in units 2 pi/alat)
               b(1) = (  0.212408  0.124006  0.000085 )  
               b(2) = (  0.000811  0.246607  0.000041 )  
               b(3) = (  0.000060  0.000043  0.118535 )  


     PseudoPot. # 1 for Cd read from file:
     /projects/academic/cyberwksp21/Students/jstetzler/QE_examples/Tutorials_QE_and_eQE/6_nac_workflow/step2b/PP/Cd.pbe-n-rrkjus_psl.1.0.0.UPF
     MD5 check sum: a744746c89d2344a134ead0d8ab94e7a
     Pseudo is Ultrasoft + core correction, Zval = 12.0
     Generated using "atomic" code by A. Dal Corso v.6.3
     Using radial grid of 1239 points,  6 beta functions with: 
                l(1) =   0
                l(2) =   0
                l(3) =   1
                l(4) =   1
                l(5) =   2
                l(6) =   2
     Q(r) pseudized with 0 coefficients 


     PseudoPot. # 2 for Se read from file:
     /projects/academic/cyberwksp21/Students/jstetzler/QE_examples/Tutorials_QE_and_eQE/6_nac_workflow/step2b/PP/Se.pbe-dn-rrkjus_psl.1.0.0.UPF
     MD5 check sum: 497c2ee764913186385bad8d0f9c7a86
     Pseudo is Ultrasoft + core correction, Zval = 16.0
     Generated using "atomic" code by A. Dal Corso v.6.3
     Using radial grid of 1211 points,  6 beta functions with: 
                l(1) =   0
                l(2) =   0
                l(3) =   1
                l(4) =   1
                l(5) =   2
                l(6) =   2
     Q(r) pseudized with 0 coefficients 


     atomic species   valence    mass     pseudopotential
        Cd            12.00   121.41100     Cd( 1.00)
        Se            16.00    78.96000     Se( 1.00)

     Starting magnetic structure 
     atomic species   magnetization
        Cd           0.100
        Se           0.000

     No symmetry found



   Cartesian axes

     site n.     atom                  positions (alat units)
         1           Cd  tau(   1) = (   0.0120536   2.6734435   8.8075738  )
         2           Cd  tau(   2) = (   2.3341830   1.3620192   4.5595520  )
         3           Se  tau(   3) = (  -0.0038114   2.7163503   2.8868200  )
         4           Se  tau(   4) = (   2.3378111   1.3446313   7.1115700  )

     number of k points=     1  gaussian smearing, width (Ry)=  0.0050
                       cart. coord. in units 2pi/alat
        k(    1) = (   0.0000000   0.0000000   0.0000000), wk =   1.0000000

     Dense  grid:    37187 G-vectors     FFT dimensions: (  36,  36,  72)

     Estimated max dynamical RAM per process >      40.32 MB

     Estimated total dynamical RAM >     161.26 MB
     Generating pointlists ...
     new r_m :   0.4125 (alat units)  0.7796 (a.u.) for type    1
     new r_m :   0.4125 (alat units)  0.7796 (a.u.) for type    2

     Initial potential from superposition of free atoms

     starting charge   55.99008, renormalised to   56.00000

     negative rho (up, down):  1.080E-06 6.423E-07
     Starting wfc are   36 randomized atomic wfcs +    4 random wfc

     total cpu time spent up to now is        3.4 secs

     Self-consistent Calculation

     iteration #  1     ecut=    40.00 Ry     beta= 0.45
     Davidson diagonalization with overlap
     ethr =  1.00E-02,  avg # of iterations =  7.0

     Threshold (ethr) on eigenvalues was too large:
     Diagonalizing with lowered threshold

     Davidson diagonalization with overlap
     ethr =  5.11E-04,  avg # of iterations =  1.0

     negative rho (up, down):  1.082E-05 2.914E-05

     total cpu time spent up to now is        4.5 secs

     total energy              =    -717.12496536 Ry
     Harris-Foulkes estimate   =    -717.23539036 Ry
     estimated scf accuracy    <       0.28156555 Ry

     total magnetization       =     1.44 Bohr mag/cell
     absolute magnetization    =     1.44 Bohr mag/cell

     iteration #  2     ecut=    40.00 Ry     beta= 0.45
     Davidson diagonalization with overlap
     ethr =  5.03E-04,  avg # of iterations =  5.0

     negative rho (up, down):  1.717E-05 3.112E-05

     total cpu time spent up to now is        5.0 secs

     total energy              =    -717.13763234 Ry
     Harris-Foulkes estimate   =    -717.22024825 Ry
     estimated scf accuracy    <       0.26989502 Ry

     total magnetization       =     1.65 Bohr mag/cell
     absolute magnetization    =     1.66 Bohr mag/cell

     iteration #  3     ecut=    40.00 Ry     beta= 0.45
     Davidson diagonalization with overlap
     ethr =  4.82E-04,  avg # of iterations =  3.5

     negative rho (up, down):  2.391E-05 3.731E-05

     total cpu time spent up to now is        5.6 secs

     total energy              =    -717.19199391 Ry
     Harris-Foulkes estimate   =    -717.33982923 Ry
     estimated scf accuracy    <       1.16012535 Ry

     total magnetization       =     1.90 Bohr mag/cell
     absolute magnetization    =     1.93 Bohr mag/cell

     iteration #  4     ecut=    40.00 Ry     beta= 0.45
     Davidson diagonalization with overlap
     ethr =  4.82E-04,  avg # of iterations =  1.5

     negative rho (up, down):  4.208E-05 5.739E-05

     total cpu time spent up to now is        6.1 secs

     total energy              =    -717.21661213 Ry
     Harris-Foulkes estimate   =    -717.22414016 Ry
     estimated scf accuracy    <       0.12454166 Ry

     total magnetization       =     2.00 Bohr mag/cell
     absolute magnetization    =     2.02 Bohr mag/cell

     iteration #  5     ecut=    40.00 Ry     beta= 0.45
     Davidson diagonalization with overlap
     ethr =  2.22E-04,  avg # of iterations =  3.0

     negative rho (up, down):  5.586E-05 7.533E-05

     total cpu time spent up to now is        6.6 secs

     total energy              =    -717.22308600 Ry
     Harris-Foulkes estimate   =    -717.24451624 Ry
     estimated scf accuracy    <       0.34094440 Ry

     total magnetization       =     2.00 Bohr mag/cell
     absolute magnetization    =     2.04 Bohr mag/cell

     iteration #  6     ecut=    40.00 Ry     beta= 0.45
     Davidson diagonalization with overlap
     ethr =  2.22E-04,  avg # of iterations =  1.0

     negative rho (up, down):  7.757E-05 1.069E-04

     total cpu time spent up to now is        7.2 secs

     total energy              =    -717.23864195 Ry
     Harris-Foulkes estimate   =    -717.23682677 Ry
     estimated scf accuracy    <       0.01748621 Ry

     total magnetization       =     2.00 Bohr mag/cell
     absolute magnetization    =     2.05 Bohr mag/cell

     iteration #  7     ecut=    40.00 Ry     beta= 0.45
     Davidson diagonalization with overlap
     ethr =  3.12E-05,  avg # of iterations =  1.0

     negative rho (up, down):  7.451E-05 1.090E-04

     total cpu time spent up to now is        7.7 secs

     total energy              =    -717.23828641 Ry
     Harris-Foulkes estimate   =    -717.23897951 Ry
     estimated scf accuracy    <       0.00858567 Ry

     total magnetization       =     2.00 Bohr mag/cell
     absolute magnetization    =     2.08 Bohr mag/cell

     iteration #  8     ecut=    40.00 Ry     beta= 0.45
     Davidson diagonalization with overlap
     ethr =  1.53E-05,  avg # of iterations = 10.5

     negative rho (up, down):  7.351E-05 1.092E-04

     total cpu time spent up to now is        8.3 secs

     total energy              =    -717.23870785 Ry
     Harris-Foulkes estimate   =    -717.23899450 Ry
     estimated scf accuracy    <       0.00463534 Ry

     total magnetization       =     2.00 Bohr mag/cell
     absolute magnetization    =     2.09 Bohr mag/cell

     iteration #  9     ecut=    40.00 Ry     beta= 0.45
     Davidson diagonalization with overlap
     ethr =  8.28E-06,  avg # of iterations =  2.0

     negative rho (up, down):  7.356E-05 1.102E-04

     total cpu time spent up to now is        8.8 secs

     total energy              =    -717.23890341 Ry
     Harris-Foulkes estimate   =    -717.23890986 Ry
     estimated scf accuracy    <       0.00036596 Ry

     total magnetization       =     2.00 Bohr mag/cell
     absolute magnetization    =     2.09 Bohr mag/cell

     iteration # 10     ecut=    40.00 Ry     beta= 0.45
     Davidson diagonalization with overlap
     ethr =  6.53E-07,  avg # of iterations = 10.5

     negative rho (up, down):  7.410E-05 1.107E-04

     Magnetic moment per site:
     atom:    1    charge:    2.2874    magn:    0.0085    constr:    0.0000
     atom:    2    charge:    2.2798    magn:    0.0083    constr:    0.0000
     atom:    3    charge:    8.0262    magn:    0.0264    constr:    0.0000
     atom:    4    charge:    8.0279    magn:    0.0277    constr:    0.0000

     total cpu time spent up to now is        9.5 secs

     End of self-consistent calculation

 ------ SPIN UP ------------


          k = 0.0000 0.0000 0.0000 (  4621 PWs)   bands (ev):

   -43.9336 -43.9286 -43.9171 -43.8861 -43.8833 -43.8827 -43.8789 -43.8727
   -43.8333 -43.8278  -9.3698  -9.2109  -4.9524  -4.9151  -4.9038  -4.8450
    -4.8396  -4.8095  -4.8015  -4.8002  -4.7755  -4.7713  -1.2143   1.4069
     1.6434   1.6978   2.0662   2.0844   2.1443   4.9628   7.9203   8.2119
     8.2483   8.4643   9.1901   9.2376   9.9952  10.8933  11.0256  11.9449

 ------ SPIN DOWN ----------


          k = 0.0000 0.0000 0.0000 (  4621 PWs)   bands (ev):

   -43.8386 -43.8158 -43.8067 -43.7926 -43.7711 -43.7667 -43.7272 -43.7233
   -43.6799 -43.6744  -8.6473  -8.4640  -4.9226  -4.8648  -4.8577  -4.8097
    -4.8049  -4.7990  -4.7959  -4.7756  -4.7714  -4.7649  -1.0560   1.6810
     2.2628   2.5609   2.6203   3.0462   3.0646   5.0915   8.0735   8.3301
     8.3669   8.6315   9.4109   9.4597  10.0286  11.1822  11.3123  12.0058

     the Fermi energy is     2.8325 ev

!    total energy              =    -717.23891116 Ry
     Harris-Foulkes estimate   =    -717.23891582 Ry
     estimated scf accuracy    <       0.00000910 Ry

     The total energy is the sum of the following terms:

     one-electron contribution =    -608.85215533 Ry
     hartree contribution      =     323.67635448 Ry
     xc contribution           =    -102.42859152 Ry
     ewald contribution        =    -329.63451862 Ry
     smearing contrib. (-TS)   =      -0.00000017 Ry

     total magnetization       =     2.00 Bohr mag/cell
     absolute magnetization    =     2.09 Bohr mag/cell

     convergence has been achieved in  10 iterations

     Writing output data file x0.save

     init_run     :      1.85s CPU      1.98s WALL (       1 calls)
     electrons    :      5.73s CPU      6.13s WALL (       1 calls)

     Called by init_run:
     wfcinit      :      0.06s CPU      0.07s WALL (       1 calls)
     potinit      :      0.50s CPU      0.53s WALL (       1 calls)

     Called by electrons:
     c_bands      :      1.92s CPU      2.12s WALL (      11 calls)
     sum_band     :      2.26s CPU      2.31s WALL (      11 calls)
     v_of_rho     :      0.65s CPU      0.67s WALL (      11 calls)
     newd         :      0.99s CPU      1.01s WALL (      11 calls)
     mix_rho      :      0.04s CPU      0.04s WALL (      11 calls)

     Called by c_bands:
     init_us_2    :      0.04s CPU      0.04s WALL (      46 calls)
     cegterg      :      1.82s CPU      2.02s WALL (      22 calls)

     Called by sum_band:
     sum_band:bec :      0.00s CPU      0.00s WALL (      22 calls)
     addusdens    :      1.93s CPU      1.95s WALL (      11 calls)

     Called by *egterg:
     h_psi        :      1.29s CPU      1.46s WALL (     116 calls)
     s_psi        :      0.04s CPU      0.04s WALL (     116 calls)
     g_psi        :      0.01s CPU      0.01s WALL (      92 calls)
     cdiaghg      :      0.31s CPU      0.34s WALL (     112 calls)

     Called by h_psi:
     h_psi:pot    :      1.28s CPU      1.45s WALL (     116 calls)
     h_psi:calbec :      0.04s CPU      0.05s WALL (     116 calls)
     vloc_psi     :      1.20s CPU      1.35s WALL (     116 calls)
     add_vuspsi   :      0.04s CPU      0.04s WALL (     116 calls)

     General routines
     calbec       :      0.06s CPU      0.07s WALL (     138 calls)
     fft          :      0.18s CPU      0.26s WALL (     277 calls)
     fftw         :      1.31s CPU      1.48s WALL (    4874 calls)

     Parallel routines
     fft_scatt_xy :      0.15s CPU      0.17s WALL (    5151 calls)
     fft_scatt_yz :      0.39s CPU      0.52s WALL (    5151 calls)

     PWSCF        :     8.92s CPU         9.85s WALL


   This run was terminated on:  15: 8: 7  12Jul2022            

=------------------------------------------------------------------------------=
   JOB DONE.
=------------------------------------------------------------------------------=
