
     Program PWSCF v.6.2 (svn rev. 14038) starts on 12Jul2022 at 15: 6:52 

     This program is part of the open-source Quantum ESPRESSO suite
     for quantum simulation of materials; please cite
         "P. Giannozzi et al., J. Phys.:Condens. Matter 21 395502 (2009);
         "P. Giannozzi et al., J. Phys.:Condens. Matter 29 465901 (2017);
          URL http://www.quantum-espresso.org", 
     in publications or presentations arising from this work. More details at
     http://www.quantum-espresso.org/quote

     Parallel version (MPI), running on     4 processors

     MPI processes distributed on     1 nodes
     R & G space division:  proc/nbgrp/npool/nimage =       4
     Waiting for input...
     Reading input from standard input
Warning: card &IONS ignored
Warning: card   ION_DYNAMICS = 'VERLET', ignored
Warning: card   ION_TEMPERATURE = 'ANDERSEN', ignored
Warning: card   TEMPW = 300.00 , ignored
Warning: card   NRAISE = 1, ignored
Warning: card / ignored

     Current dimensions of program PWSCF are:
     Max number of different atomic species (ntypx) = 10
     Max number of k-points (npk) =  40000
     Max angular momentum in pseudopotentials (lmaxx) =  3
               file Cd.pbe-n-rrkjus_psl.1.0.0.UPF: wavefunction(s)  4D renormalized

     Subspace diagonalization in iterative solution of the eigenvalue problem:
     a serial algorithm will be used


     Parallelization info
     --------------------
     sticks:   dense  smooth     PW     G-vecs:    dense   smooth      PW
     Min         215     215     52                 9295     9295    1151
     Max         216     216     53                 9298     9298    1158
     Sum         863     863    211                37187    37187    4621



     bravais-lattice index     =            0
     lattice parameter (alat)  =       1.8900  a.u.
     unit-cell volume          =    1089.4295 (a.u.)^3
     number of atoms/cell      =            4
     number of atomic types    =            2
     number of electrons       =        56.00
     number of Kohn-Sham states=           40
     kinetic-energy cutoff     =      40.0000  Ry
     charge density cutoff     =     160.0000  Ry
     convergence threshold     =      1.0E-05
     mixing beta               =       0.4500
     number of iterations used =            8  plain     mixing
     Exchange-correlation      = PBE ( 1  4  3  4 0 0)

     celldm(1)=   1.890000  celldm(2)=   0.000000  celldm(3)=   0.000000
     celldm(4)=   0.000000  celldm(5)=   0.000000  celldm(6)=   0.000000

     crystal axes: (cart. coord. in units of alat)
               a(1) = (   4.716987  -0.015513  -0.002401 )  
               a(2) = (  -2.371927   4.062830  -0.000274 )  
               a(3) = (  -0.002553  -0.001388   8.436361 )  

     reciprocal axes: (cart. coord. in units 2 pi/alat)
               b(1) = (  0.212408  0.124006  0.000085 )  
               b(2) = (  0.000811  0.246607  0.000041 )  
               b(3) = (  0.000060  0.000043  0.118535 )  


     PseudoPot. # 1 for Cd read from file:
     /projects/academic/cyberwksp21/Students/jstetzler/QE_examples/Tutorials_QE_and_eQE/6_nac_workflow/step2b/PP/Cd.pbe-n-rrkjus_psl.1.0.0.UPF
     MD5 check sum: a744746c89d2344a134ead0d8ab94e7a
     Pseudo is Ultrasoft + core correction, Zval = 12.0
     Generated using "atomic" code by A. Dal Corso v.6.3
     Using radial grid of 1239 points,  6 beta functions with: 
                l(1) =   0
                l(2) =   0
                l(3) =   1
                l(4) =   1
                l(5) =   2
                l(6) =   2
     Q(r) pseudized with 0 coefficients 


     PseudoPot. # 2 for Se read from file:
     /projects/academic/cyberwksp21/Students/jstetzler/QE_examples/Tutorials_QE_and_eQE/6_nac_workflow/step2b/PP/Se.pbe-dn-rrkjus_psl.1.0.0.UPF
     MD5 check sum: 497c2ee764913186385bad8d0f9c7a86
     Pseudo is Ultrasoft + core correction, Zval = 16.0
     Generated using "atomic" code by A. Dal Corso v.6.3
     Using radial grid of 1211 points,  6 beta functions with: 
                l(1) =   0
                l(2) =   0
                l(3) =   1
                l(4) =   1
                l(5) =   2
                l(6) =   2
     Q(r) pseudized with 0 coefficients 


     atomic species   valence    mass     pseudopotential
        Cd            12.00   121.41100     Cd( 1.00)
        Se            16.00    78.96000     Se( 1.00)

     Starting magnetic structure 
     atomic species   magnetization
        Cd           0.100
        Se           0.000

     No symmetry found



   Cartesian axes

     site n.     atom                  positions (alat units)
         1           Cd  tau(   1) = (   0.0078978   2.6800237   8.7982345  )
         2           Cd  tau(   2) = (   2.3338800   1.3661813   4.5752052  )
         3           Se  tau(   3) = (  -0.0031578   2.7000614   2.8867279  )
         4           Se  tau(   4) = (   2.3440134   1.3444026   7.1019536  )

     number of k points=     1  gaussian smearing, width (Ry)=  0.0050
                       cart. coord. in units 2pi/alat
        k(    1) = (   0.0000000   0.0000000   0.0000000), wk =   1.0000000

     Dense  grid:    37187 G-vectors     FFT dimensions: (  36,  36,  72)

     Estimated max dynamical RAM per process >      40.32 MB

     Estimated total dynamical RAM >     161.26 MB
     Generating pointlists ...
     new r_m :   0.4125 (alat units)  0.7796 (a.u.) for type    1
     new r_m :   0.4125 (alat units)  0.7796 (a.u.) for type    2

     Initial potential from superposition of free atoms

     starting charge   55.99008, renormalised to   56.00000

     negative rho (up, down):  1.860E-06 1.033E-06
     Starting wfc are   36 randomized atomic wfcs +    4 random wfc

     total cpu time spent up to now is        3.7 secs

     Self-consistent Calculation

     iteration #  1     ecut=    40.00 Ry     beta= 0.45
     Davidson diagonalization with overlap
     ethr =  1.00E-02,  avg # of iterations =  7.0

     Threshold (ethr) on eigenvalues was too large:
     Diagonalizing with lowered threshold

     Davidson diagonalization with overlap
     ethr =  5.12E-04,  avg # of iterations =  1.0

     negative rho (up, down):  1.006E-05 2.957E-05

     total cpu time spent up to now is        4.7 secs

     total energy              =    -717.12542601 Ry
     Harris-Foulkes estimate   =    -717.23615703 Ry
     estimated scf accuracy    <       0.28217802 Ry

     total magnetization       =     1.45 Bohr mag/cell
     absolute magnetization    =     1.45 Bohr mag/cell

     iteration #  2     ecut=    40.00 Ry     beta= 0.45
     Davidson diagonalization with overlap
     ethr =  5.04E-04,  avg # of iterations =  2.0

     negative rho (up, down):  2.300E-05 3.718E-05

     total cpu time spent up to now is        5.3 secs

     total energy              =    -717.20615120 Ry
     Harris-Foulkes estimate   =    -717.21421158 Ry
     estimated scf accuracy    <       0.06150614 Ry

     total magnetization       =     1.68 Bohr mag/cell
     absolute magnetization    =     1.69 Bohr mag/cell

     iteration #  3     ecut=    40.00 Ry     beta= 0.45
     Davidson diagonalization with overlap
     ethr =  1.10E-04,  avg # of iterations =  5.5

     negative rho (up, down):  2.487E-05 3.949E-05

     total cpu time spent up to now is        5.9 secs

     total energy              =    -717.19798933 Ry
     Harris-Foulkes estimate   =    -717.23018259 Ry
     estimated scf accuracy    <       0.32258972 Ry

     total magnetization       =     2.00 Bohr mag/cell
     absolute magnetization    =     2.02 Bohr mag/cell

     iteration #  4     ecut=    40.00 Ry     beta= 0.45
     Davidson diagonalization with overlap
     ethr =  1.10E-04,  avg # of iterations =  1.5

     negative rho (up, down):  4.302E-05 5.980E-05

     total cpu time spent up to now is        6.4 secs

     total energy              =    -717.22565640 Ry
     Harris-Foulkes estimate   =    -717.22929324 Ry
     estimated scf accuracy    <       0.25013877 Ry

     total magnetization       =     2.00 Bohr mag/cell
     absolute magnetization    =     2.02 Bohr mag/cell

     iteration #  5     ecut=    40.00 Ry     beta= 0.45
     Davidson diagonalization with overlap
     ethr =  1.10E-04,  avg # of iterations =  1.0

     negative rho (up, down):  8.539E-05 1.095E-04

     total cpu time spent up to now is        6.9 secs

     total energy              =    -717.23832342 Ry
     Harris-Foulkes estimate   =    -717.23298838 Ry
     estimated scf accuracy    <       0.00280133 Ry

     total magnetization       =     2.00 Bohr mag/cell
     absolute magnetization    =     2.03 Bohr mag/cell

     iteration #  6     ecut=    40.00 Ry     beta= 0.45
     Davidson diagonalization with overlap
     ethr =  5.00E-06,  avg # of iterations =  7.0

     negative rho (up, down):  8.300E-05 1.119E-04

     total cpu time spent up to now is        7.6 secs

     total energy              =    -717.23920022 Ry
     Harris-Foulkes estimate   =    -717.23919661 Ry
     estimated scf accuracy    <       0.00020857 Ry

     total magnetization       =     2.00 Bohr mag/cell
     absolute magnetization    =     2.08 Bohr mag/cell

     iteration #  7     ecut=    40.00 Ry     beta= 0.45
     Davidson diagonalization with overlap
     c_bands:  1 eigenvalues not converged
     ethr =  3.72E-07,  avg # of iterations = 11.5

     negative rho (up, down):  7.921E-05 1.110E-04

     total cpu time spent up to now is        8.3 secs

     total energy              =    -717.23924705 Ry
     Harris-Foulkes estimate   =    -717.23924297 Ry
     estimated scf accuracy    <       0.00002307 Ry

     total magnetization       =     2.00 Bohr mag/cell
     absolute magnetization    =     2.09 Bohr mag/cell

     iteration #  8     ecut=    40.00 Ry     beta= 0.45
     Davidson diagonalization with overlap
     ethr =  4.12E-08,  avg # of iterations =  2.5

     negative rho (up, down):  7.653E-05 1.115E-04

     Magnetic moment per site:
     atom:    1    charge:    2.2805    magn:    0.0084    constr:    0.0000
     atom:    2    charge:    2.2808    magn:    0.0084    constr:    0.0000
     atom:    3    charge:    8.0215    magn:    0.0270    constr:    0.0000
     atom:    4    charge:    8.0191    magn:    0.0271    constr:    0.0000

     total cpu time spent up to now is        8.8 secs

     End of self-consistent calculation

 ------ SPIN UP ------------


          k = 0.0000 0.0000 0.0000 (  4621 PWs)   bands (ev):

   -43.9271 -43.9133 -43.9105 -43.8997 -43.8988 -43.8944 -43.8731 -43.8686
   -43.8564 -43.8512  -9.3770  -9.2174  -4.9530  -4.9127  -4.9019  -4.8493
    -4.8445  -4.8136  -4.7950  -4.7915  -4.7868  -4.7824  -1.2220   1.3929
     1.6429   1.6993   2.0679   2.0844   2.1495   4.9727   7.9265   8.2087
     8.2494   8.4772   9.2115   9.2281   9.9937  10.8882  11.0208  11.9438

 ------ SPIN DOWN ----------


          k = 0.0000 0.0000 0.0000 (  4621 PWs)   bands (ev):

   -43.8341 -43.8065 -43.8034 -43.8003 -43.7896 -43.7849 -43.7166 -43.7120
   -43.7003 -43.6951  -8.6576  -8.4776  -4.9216  -4.8609  -4.8536  -4.8091
    -4.8060  -4.7930  -4.7886  -4.7864  -4.7810  -4.7694  -1.0616   1.6672
     2.2707   2.5550   2.6155   3.0424   3.0600   5.1026   8.0795   8.3294
     8.3704   8.6463   9.4308   9.4536  10.0266  11.1767  11.3083  12.0065

     the Fermi energy is     2.8281 ev

!    total energy              =    -717.23925788 Ry
     Harris-Foulkes estimate   =    -717.23925258 Ry
     estimated scf accuracy    <       0.00000324 Ry

     The total energy is the sum of the following terms:

     one-electron contribution =    -609.04089542 Ry
     hartree contribution      =     323.76624974 Ry
     xc contribution           =    -102.43030288 Ry
     ewald contribution        =    -329.53430916 Ry
     smearing contrib. (-TS)   =      -0.00000016 Ry

     total magnetization       =     2.00 Bohr mag/cell
     absolute magnetization    =     2.09 Bohr mag/cell

     convergence has been achieved in   8 iterations

     Writing output data file x0.save

     init_run     :      2.08s CPU      2.14s WALL (       1 calls)
     electrons    :      5.03s CPU      5.24s WALL (       1 calls)

     Called by init_run:
     wfcinit      :      0.07s CPU      0.07s WALL (       1 calls)
     potinit      :      0.56s CPU      0.57s WALL (       1 calls)

     Called by electrons:
     c_bands      :      1.83s CPU      1.93s WALL (       9 calls)
     sum_band     :      1.93s CPU      1.96s WALL (       9 calls)
     v_of_rho     :      0.55s CPU      0.56s WALL (       9 calls)
     newd         :      0.84s CPU      0.86s WALL (       9 calls)
     mix_rho      :      0.03s CPU      0.03s WALL (       9 calls)

     Called by c_bands:
     init_us_2    :      0.03s CPU      0.04s WALL (      38 calls)
     cegterg      :      1.75s CPU      1.85s WALL (      18 calls)

     Called by sum_band:
     sum_band:bec :      0.00s CPU      0.00s WALL (      18 calls)
     addusdens    :      1.65s CPU      1.66s WALL (       9 calls)

     Called by *egterg:
     h_psi        :      1.19s CPU      1.27s WALL (      98 calls)
     s_psi        :      0.04s CPU      0.04s WALL (      98 calls)
     g_psi        :      0.01s CPU      0.01s WALL (      78 calls)
     cdiaghg      :      0.32s CPU      0.34s WALL (      94 calls)

     Called by h_psi:
     h_psi:pot    :      1.18s CPU      1.26s WALL (      98 calls)
     h_psi:calbec :      0.05s CPU      0.05s WALL (      98 calls)
     vloc_psi     :      1.09s CPU      1.16s WALL (      98 calls)
     add_vuspsi   :      0.04s CPU      0.04s WALL (      98 calls)

     General routines
     calbec       :      0.06s CPU      0.07s WALL (     116 calls)
     fft          :      0.12s CPU      0.15s WALL (     227 calls)
     fftw         :      1.17s CPU      1.24s WALL (    4286 calls)

     Parallel routines
     fft_scatt_xy :      0.14s CPU      0.15s WALL (    4513 calls)
     fft_scatt_yz :      0.26s CPU      0.30s WALL (    4513 calls)

     PWSCF        :     8.58s CPU         9.30s WALL


   This run was terminated on:  15: 7: 2  12Jul2022            

=------------------------------------------------------------------------------=
   JOB DONE.
=------------------------------------------------------------------------------=
