
     Program PWSCF v.6.2 (svn rev. 14038) starts on 12Jul2022 at 15: 5:59 

     This program is part of the open-source Quantum ESPRESSO suite
     for quantum simulation of materials; please cite
         "P. Giannozzi et al., J. Phys.:Condens. Matter 21 395502 (2009);
         "P. Giannozzi et al., J. Phys.:Condens. Matter 29 465901 (2017);
          URL http://www.quantum-espresso.org", 
     in publications or presentations arising from this work. More details at
     http://www.quantum-espresso.org/quote

     Parallel version (MPI), running on     4 processors

     MPI processes distributed on     1 nodes
     R & G space division:  proc/nbgrp/npool/nimage =       4
     Waiting for input...
     Reading input from standard input
Warning: card &IONS ignored
Warning: card   ION_DYNAMICS = 'VERLET', ignored
Warning: card   ION_TEMPERATURE = 'ANDERSEN', ignored
Warning: card   TEMPW = 300.00 , ignored
Warning: card   NRAISE = 1, ignored
Warning: card / ignored

     Current dimensions of program PWSCF are:
     Max number of different atomic species (ntypx) = 10
     Max number of k-points (npk) =  40000
     Max angular momentum in pseudopotentials (lmaxx) =  3
               file Cd.pbe-n-rrkjus_psl.1.0.0.UPF: wavefunction(s)  4D renormalized

     Subspace diagonalization in iterative solution of the eigenvalue problem:
     a serial algorithm will be used


     Parallelization info
     --------------------
     sticks:   dense  smooth     PW     G-vecs:    dense   smooth      PW
     Min         215     215     52                 9295     9295    1151
     Max         216     216     53                 9298     9298    1158
     Sum         863     863    211                37187    37187    4621



     bravais-lattice index     =            0
     lattice parameter (alat)  =       1.8900  a.u.
     unit-cell volume          =    1089.4295 (a.u.)^3
     number of atoms/cell      =            4
     number of atomic types    =            2
     number of electrons       =        56.00
     number of Kohn-Sham states=           40
     kinetic-energy cutoff     =      40.0000  Ry
     charge density cutoff     =     160.0000  Ry
     convergence threshold     =      1.0E-05
     mixing beta               =       0.4500
     number of iterations used =            8  plain     mixing
     Exchange-correlation      = PBE ( 1  4  3  4 0 0)

     celldm(1)=   1.890000  celldm(2)=   0.000000  celldm(3)=   0.000000
     celldm(4)=   0.000000  celldm(5)=   0.000000  celldm(6)=   0.000000

     crystal axes: (cart. coord. in units of alat)
               a(1) = (   4.716987  -0.015513  -0.002401 )  
               a(2) = (  -2.371927   4.062830  -0.000274 )  
               a(3) = (  -0.002553  -0.001388   8.436361 )  

     reciprocal axes: (cart. coord. in units 2 pi/alat)
               b(1) = (  0.212408  0.124006  0.000085 )  
               b(2) = (  0.000811  0.246607  0.000041 )  
               b(3) = (  0.000060  0.000043  0.118535 )  


     PseudoPot. # 1 for Cd read from file:
     /projects/academic/cyberwksp21/Students/jstetzler/QE_examples/Tutorials_QE_and_eQE/6_nac_workflow/step2b/PP/Cd.pbe-n-rrkjus_psl.1.0.0.UPF
     MD5 check sum: a744746c89d2344a134ead0d8ab94e7a
     Pseudo is Ultrasoft + core correction, Zval = 12.0
     Generated using "atomic" code by A. Dal Corso v.6.3
     Using radial grid of 1239 points,  6 beta functions with: 
                l(1) =   0
                l(2) =   0
                l(3) =   1
                l(4) =   1
                l(5) =   2
                l(6) =   2
     Q(r) pseudized with 0 coefficients 


     PseudoPot. # 2 for Se read from file:
     /projects/academic/cyberwksp21/Students/jstetzler/QE_examples/Tutorials_QE_and_eQE/6_nac_workflow/step2b/PP/Se.pbe-dn-rrkjus_psl.1.0.0.UPF
     MD5 check sum: 497c2ee764913186385bad8d0f9c7a86
     Pseudo is Ultrasoft + core correction, Zval = 16.0
     Generated using "atomic" code by A. Dal Corso v.6.3
     Using radial grid of 1211 points,  6 beta functions with: 
                l(1) =   0
                l(2) =   0
                l(3) =   1
                l(4) =   1
                l(5) =   2
                l(6) =   2
     Q(r) pseudized with 0 coefficients 


     atomic species   valence    mass     pseudopotential
        Cd            12.00   121.41100     Cd( 1.00)
        Se            16.00    78.96000     Se( 1.00)

     Starting magnetic structure 
     atomic species   magnetization
        Cd           0.100
        Se           0.000

     No symmetry found



   Cartesian axes

     site n.     atom                  positions (alat units)
         1           Cd  tau(   1) = (   0.0089046   2.6764993   8.7998775  )
         2           Cd  tau(   2) = (   2.3372524   1.3649606   4.5717525  )
         3           Se  tau(   3) = (  -0.0068684   2.7011567   2.8928687  )
         4           Se  tau(   4) = (   2.3409905   1.3506035   7.0985954  )

     number of k points=     1  gaussian smearing, width (Ry)=  0.0050
                       cart. coord. in units 2pi/alat
        k(    1) = (   0.0000000   0.0000000   0.0000000), wk =   1.0000000

     Dense  grid:    37187 G-vectors     FFT dimensions: (  36,  36,  72)

     Estimated max dynamical RAM per process >      40.32 MB

     Estimated total dynamical RAM >     161.26 MB
     Generating pointlists ...
     new r_m :   0.4125 (alat units)  0.7796 (a.u.) for type    1
     new r_m :   0.4125 (alat units)  0.7796 (a.u.) for type    2

     Initial potential from superposition of free atoms

     starting charge   55.99008, renormalised to   56.00000

     negative rho (up, down):  1.859E-06 1.034E-06
     Starting wfc are   36 randomized atomic wfcs +    4 random wfc

     total cpu time spent up to now is        3.3 secs

     Self-consistent Calculation

     iteration #  1     ecut=    40.00 Ry     beta= 0.45
     Davidson diagonalization with overlap
     ethr =  1.00E-02,  avg # of iterations =  7.0

     Threshold (ethr) on eigenvalues was too large:
     Diagonalizing with lowered threshold

     Davidson diagonalization with overlap
     ethr =  5.11E-04,  avg # of iterations =  1.0

     negative rho (up, down):  9.999E-06 3.032E-05

     total cpu time spent up to now is        4.4 secs

     total energy              =    -717.12553990 Ry
     Harris-Foulkes estimate   =    -717.23603105 Ry
     estimated scf accuracy    <       0.28177510 Ry

     total magnetization       =     1.45 Bohr mag/cell
     absolute magnetization    =     1.45 Bohr mag/cell

     iteration #  2     ecut=    40.00 Ry     beta= 0.45
     Davidson diagonalization with overlap
     ethr =  5.03E-04,  avg # of iterations =  2.0

     negative rho (up, down):  2.178E-05 3.528E-05

     total cpu time spent up to now is        4.9 secs

     total energy              =    -717.19923211 Ry
     Harris-Foulkes estimate   =    -717.21452297 Ry
     estimated scf accuracy    <       0.07612210 Ry

     total magnetization       =     1.67 Bohr mag/cell
     absolute magnetization    =     1.68 Bohr mag/cell

     iteration #  3     ecut=    40.00 Ry     beta= 0.45
     Davidson diagonalization with overlap
     ethr =  1.36E-04,  avg # of iterations =  5.0

     negative rho (up, down):  2.403E-05 3.834E-05

     total cpu time spent up to now is        5.5 secs

     total energy              =    -717.18944455 Ry
     Harris-Foulkes estimate   =    -717.25881227 Ry
     estimated scf accuracy    <       0.69159181 Ry

     total magnetization       =     2.00 Bohr mag/cell
     absolute magnetization    =     2.02 Bohr mag/cell

     iteration #  4     ecut=    40.00 Ry     beta= 0.45
     Davidson diagonalization with overlap
     ethr =  1.36E-04,  avg # of iterations =  2.0

     negative rho (up, down):  4.218E-05 5.910E-05

     total cpu time spent up to now is        6.1 secs

     total energy              =    -717.22881748 Ry
     Harris-Foulkes estimate   =    -717.22342348 Ry
     estimated scf accuracy    <       0.08080595 Ry

     total magnetization       =     2.00 Bohr mag/cell
     absolute magnetization    =     2.02 Bohr mag/cell

     iteration #  5     ecut=    40.00 Ry     beta= 0.45
     Davidson diagonalization with overlap
     ethr =  1.36E-04,  avg # of iterations =  1.0

     negative rho (up, down):  8.101E-05 1.039E-04

     total cpu time spent up to now is        6.6 secs

     total energy              =    -717.23644396 Ry
     Harris-Foulkes estimate   =    -717.23366667 Ry
     estimated scf accuracy    <       0.02314387 Ry

     total magnetization       =     2.00 Bohr mag/cell
     absolute magnetization    =     2.03 Bohr mag/cell

     iteration #  6     ecut=    40.00 Ry     beta= 0.45
     Davidson diagonalization with overlap
     ethr =  4.13E-05,  avg # of iterations =  2.0

     negative rho (up, down):  8.209E-05 1.089E-04

     total cpu time spent up to now is        7.2 secs

     total energy              =    -717.23818474 Ry
     Harris-Foulkes estimate   =    -717.24004063 Ry
     estimated scf accuracy    <       0.03681526 Ry

     total magnetization       =     2.00 Bohr mag/cell
     absolute magnetization    =     2.07 Bohr mag/cell

     iteration #  7     ecut=    40.00 Ry     beta= 0.45
     Davidson diagonalization with overlap
     ethr =  4.13E-05,  avg # of iterations =  1.0

     negative rho (up, down):  7.775E-05 1.093E-04

     total cpu time spent up to now is        7.7 secs

     total energy              =    -717.23918445 Ry
     Harris-Foulkes estimate   =    -717.23918210 Ry
     estimated scf accuracy    <       0.00006572 Ry

     total magnetization       =     2.00 Bohr mag/cell
     absolute magnetization    =     2.08 Bohr mag/cell

     iteration #  8     ecut=    40.00 Ry     beta= 0.45
     Davidson diagonalization with overlap
     ethr =  1.17E-07,  avg # of iterations = 14.0

     negative rho (up, down):  7.578E-05 1.088E-04

     total cpu time spent up to now is        8.5 secs

     total energy              =    -717.23922022 Ry
     Harris-Foulkes estimate   =    -717.23928516 Ry
     estimated scf accuracy    <       0.00153307 Ry

     total magnetization       =     2.00 Bohr mag/cell
     absolute magnetization    =     2.09 Bohr mag/cell

     iteration #  9     ecut=    40.00 Ry     beta= 0.45
     Davidson diagonalization with overlap
     ethr =  1.17E-07,  avg # of iterations =  1.5

     negative rho (up, down):  7.476E-05 1.095E-04

     Magnetic moment per site:
     atom:    1    charge:    2.2817    magn:    0.0083    constr:    0.0000
     atom:    2    charge:    2.2786    magn:    0.0085    constr:    0.0000
     atom:    3    charge:    8.0246    magn:    0.0269    constr:    0.0000
     atom:    4    charge:    8.0198    magn:    0.0273    constr:    0.0000

     total cpu time spent up to now is        9.0 secs

     End of self-consistent calculation

 ------ SPIN UP ------------


          k = 0.0000 0.0000 0.0000 (  4621 PWs)   bands (ev):

   -43.9259 -43.9147 -43.9089 -43.8944 -43.8918 -43.8893 -43.8725 -43.8684
   -43.8504 -43.8451  -9.3740  -9.2142  -4.9502  -4.9096  -4.8991  -4.8461
    -4.8413  -4.8099  -4.7926  -4.7896  -4.7835  -4.7791  -1.2196   1.3974
     1.6431   1.7010   2.0685   2.0851   2.1483   4.9698   7.9265   8.2075
     8.2501   8.4733   9.2114   9.2252   9.9936  10.8884  11.0234  11.9426

 ------ SPIN DOWN ----------


          k = 0.0000 0.0000 0.0000 (  4621 PWs)   bands (ev):

   -43.8326 -43.8039 -43.8019 -43.7991 -43.7832 -43.7801 -43.7158 -43.7113
   -43.6949 -43.6895  -8.6535  -8.4735  -4.9190  -4.8581  -4.8512  -4.8064
    -4.8034  -4.7905  -4.7868  -4.7834  -4.7778  -4.7660  -1.0594   1.6718
     2.2692   2.5556   2.6182   3.0438   3.0614   5.0997   8.0803   8.3277
     8.3706   8.6422   9.4289   9.4525  10.0269  11.1768  11.3104  12.0056

     the Fermi energy is     2.8302 ev

!    total energy              =    -717.23925572 Ry
     Harris-Foulkes estimate   =    -717.23925543 Ry
     estimated scf accuracy    <       0.00000797 Ry

     The total energy is the sum of the following terms:

     one-electron contribution =    -608.97759999 Ry
     hartree contribution      =     323.73180101 Ry
     xc contribution           =    -102.42864624 Ry
     ewald contribution        =    -329.56481033 Ry
     smearing contrib. (-TS)   =      -0.00000017 Ry

     total magnetization       =     2.00 Bohr mag/cell
     absolute magnetization    =     2.09 Bohr mag/cell

     convergence has been achieved in   9 iterations

     Writing output data file x0.save

     init_run     :      1.92s CPU      1.97s WALL (       1 calls)
     electrons    :      5.50s CPU      5.73s WALL (       1 calls)

     Called by init_run:
     wfcinit      :      0.07s CPU      0.07s WALL (       1 calls)
     potinit      :      0.52s CPU      0.53s WALL (       1 calls)

     Called by electrons:
     c_bands      :      1.92s CPU      2.02s WALL (      10 calls)
     sum_band     :      2.14s CPU      2.16s WALL (      10 calls)
     v_of_rho     :      0.60s CPU      0.62s WALL (      10 calls)
     newd         :      0.93s CPU      0.96s WALL (      10 calls)
     mix_rho      :      0.04s CPU      0.04s WALL (      10 calls)

     Called by c_bands:
     init_us_2    :      0.04s CPU      0.04s WALL (      42 calls)
     cegterg      :      1.83s CPU      1.93s WALL (      20 calls)

     Called by sum_band:
     sum_band:bec :      0.00s CPU      0.00s WALL (      20 calls)
     addusdens    :      1.83s CPU      1.84s WALL (      10 calls)

     Called by *egterg:
     h_psi        :      1.27s CPU      1.36s WALL (      95 calls)
     s_psi        :      0.04s CPU      0.05s WALL (      95 calls)
     g_psi        :      0.01s CPU      0.01s WALL (      73 calls)
     cdiaghg      :      0.31s CPU      0.32s WALL (      91 calls)

     Called by h_psi:
     h_psi:pot    :      1.26s CPU      1.35s WALL (      95 calls)
     h_psi:calbec :      0.05s CPU      0.05s WALL (      95 calls)
     vloc_psi     :      1.17s CPU      1.25s WALL (      95 calls)
     add_vuspsi   :      0.04s CPU      0.04s WALL (      95 calls)

     General routines
     calbec       :      0.07s CPU      0.07s WALL (     115 calls)
     fft          :      0.12s CPU      0.14s WALL (     252 calls)
     fftw         :      1.26s CPU      1.35s WALL (    4620 calls)

     Parallel routines
     fft_scatt_xy :      0.16s CPU      0.17s WALL (    4872 calls)
     fft_scatt_yz :      0.26s CPU      0.29s WALL (    4872 calls)

     PWSCF        :     8.74s CPU         9.59s WALL


   This run was terminated on:  15: 6: 9  12Jul2022            

=------------------------------------------------------------------------------=
   JOB DONE.
=------------------------------------------------------------------------------=
