
     Program PWSCF v.6.2 (svn rev. 14038) starts on 12Jul2022 at 15: 7:36 

     This program is part of the open-source Quantum ESPRESSO suite
     for quantum simulation of materials; please cite
         "P. Giannozzi et al., J. Phys.:Condens. Matter 21 395502 (2009);
         "P. Giannozzi et al., J. Phys.:Condens. Matter 29 465901 (2017);
          URL http://www.quantum-espresso.org", 
     in publications or presentations arising from this work. More details at
     http://www.quantum-espresso.org/quote

     Parallel version (MPI), running on     4 processors

     MPI processes distributed on     1 nodes
     R & G space division:  proc/nbgrp/npool/nimage =       4
     Waiting for input...
     Reading input from standard input
Warning: card &IONS ignored
Warning: card   ION_DYNAMICS = 'VERLET', ignored
Warning: card   ION_TEMPERATURE = 'ANDERSEN', ignored
Warning: card   TEMPW = 300.00 , ignored
Warning: card   NRAISE = 1, ignored
Warning: card / ignored

     Current dimensions of program PWSCF are:
     Max number of different atomic species (ntypx) = 10
     Max number of k-points (npk) =  40000
     Max angular momentum in pseudopotentials (lmaxx) =  3
               file Cd.pbe-n-rrkjus_psl.1.0.0.UPF: wavefunction(s)  4D renormalized

     Subspace diagonalization in iterative solution of the eigenvalue problem:
     a serial algorithm will be used


     Parallelization info
     --------------------
     sticks:   dense  smooth     PW     G-vecs:    dense   smooth      PW
     Min         215     215     52                 9295     9295    1151
     Max         216     216     53                 9298     9298    1158
     Sum         863     863    211                37187    37187    4621



     bravais-lattice index     =            0
     lattice parameter (alat)  =       1.8900  a.u.
     unit-cell volume          =    1089.4295 (a.u.)^3
     number of atoms/cell      =            4
     number of atomic types    =            2
     number of electrons       =        56.00
     number of Kohn-Sham states=           40
     kinetic-energy cutoff     =      40.0000  Ry
     charge density cutoff     =     160.0000  Ry
     convergence threshold     =      1.0E-05
     mixing beta               =       0.4500
     number of iterations used =            8  plain     mixing
     Exchange-correlation      = PBE ( 1  4  3  4 0 0)

     celldm(1)=   1.890000  celldm(2)=   0.000000  celldm(3)=   0.000000
     celldm(4)=   0.000000  celldm(5)=   0.000000  celldm(6)=   0.000000

     crystal axes: (cart. coord. in units of alat)
               a(1) = (   4.716987  -0.015513  -0.002401 )  
               a(2) = (  -2.371927   4.062830  -0.000274 )  
               a(3) = (  -0.002553  -0.001388   8.436361 )  

     reciprocal axes: (cart. coord. in units 2 pi/alat)
               b(1) = (  0.212408  0.124006  0.000085 )  
               b(2) = (  0.000811  0.246607  0.000041 )  
               b(3) = (  0.000060  0.000043  0.118535 )  


     PseudoPot. # 1 for Cd read from file:
     /projects/academic/cyberwksp21/Students/jstetzler/QE_examples/Tutorials_QE_and_eQE/6_nac_workflow/step2b/PP/Cd.pbe-n-rrkjus_psl.1.0.0.UPF
     MD5 check sum: a744746c89d2344a134ead0d8ab94e7a
     Pseudo is Ultrasoft + core correction, Zval = 12.0
     Generated using "atomic" code by A. Dal Corso v.6.3
     Using radial grid of 1239 points,  6 beta functions with: 
                l(1) =   0
                l(2) =   0
                l(3) =   1
                l(4) =   1
                l(5) =   2
                l(6) =   2
     Q(r) pseudized with 0 coefficients 


     PseudoPot. # 2 for Se read from file:
     /projects/academic/cyberwksp21/Students/jstetzler/QE_examples/Tutorials_QE_and_eQE/6_nac_workflow/step2b/PP/Se.pbe-dn-rrkjus_psl.1.0.0.UPF
     MD5 check sum: 497c2ee764913186385bad8d0f9c7a86
     Pseudo is Ultrasoft + core correction, Zval = 16.0
     Generated using "atomic" code by A. Dal Corso v.6.3
     Using radial grid of 1211 points,  6 beta functions with: 
                l(1) =   0
                l(2) =   0
                l(3) =   1
                l(4) =   1
                l(5) =   2
                l(6) =   2
     Q(r) pseudized with 0 coefficients 


     atomic species   valence    mass     pseudopotential
        Cd            12.00   121.41100     Cd( 1.00)
        Se            16.00    78.96000     Se( 1.00)

     Starting magnetic structure 
     atomic species   magnetization
        Cd           0.100
        Se           0.000

     No symmetry found



   Cartesian axes

     site n.     atom                  positions (alat units)
         1           Cd  tau(   1) = (   0.0078634   2.6772194   8.8053528  )
         2           Cd  tau(   2) = (   2.3361287   1.3614226   4.5659070  )
         3           Se  tau(   3) = (  -0.0003460   2.7066375   2.8920462  )
         4           Se  tau(   4) = (   2.3377969   1.3494555   7.0999871  )

     number of k points=     1  gaussian smearing, width (Ry)=  0.0050
                       cart. coord. in units 2pi/alat
        k(    1) = (   0.0000000   0.0000000   0.0000000), wk =   1.0000000

     Dense  grid:    37187 G-vectors     FFT dimensions: (  36,  36,  72)

     Estimated max dynamical RAM per process >      40.32 MB

     Estimated total dynamical RAM >     161.26 MB
     Generating pointlists ...
     new r_m :   0.4125 (alat units)  0.7796 (a.u.) for type    1
     new r_m :   0.4125 (alat units)  0.7796 (a.u.) for type    2

     Initial potential from superposition of free atoms

     starting charge   55.99008, renormalised to   56.00000

     negative rho (up, down):  1.865E-06 1.039E-06
     Starting wfc are   36 randomized atomic wfcs +    4 random wfc

     total cpu time spent up to now is        3.4 secs

     Self-consistent Calculation

     iteration #  1     ecut=    40.00 Ry     beta= 0.45
     Davidson diagonalization with overlap
     ethr =  1.00E-02,  avg # of iterations =  7.0

     Threshold (ethr) on eigenvalues was too large:
     Diagonalizing with lowered threshold

     Davidson diagonalization with overlap
     ethr =  5.12E-04,  avg # of iterations =  1.0

     negative rho (up, down):  1.206E-05 3.148E-05

     total cpu time spent up to now is        4.4 secs

     total energy              =    -717.12527045 Ry
     Harris-Foulkes estimate   =    -717.23593428 Ry
     estimated scf accuracy    <       0.28203647 Ry

     total magnetization       =     1.45 Bohr mag/cell
     absolute magnetization    =     1.45 Bohr mag/cell

     iteration #  2     ecut=    40.00 Ry     beta= 0.45
     Davidson diagonalization with overlap
     ethr =  5.04E-04,  avg # of iterations =  2.0

     negative rho (up, down):  2.169E-05 3.547E-05

     total cpu time spent up to now is        5.0 secs

     total energy              =    -717.16966129 Ry
     Harris-Foulkes estimate   =    -717.21657182 Ry
     estimated scf accuracy    <       0.15211420 Ry

     total magnetization       =     1.66 Bohr mag/cell
     absolute magnetization    =     1.68 Bohr mag/cell

     iteration #  3     ecut=    40.00 Ry     beta= 0.45
     Davidson diagonalization with overlap
     ethr =  2.72E-04,  avg # of iterations =  7.0

     negative rho (up, down):  2.648E-05 4.135E-05

     total cpu time spent up to now is        5.6 secs

     total energy              =    -717.18815469 Ry
     Harris-Foulkes estimate   =    -717.31759000 Ry
     estimated scf accuracy    <       1.05043291 Ry

     total magnetization       =     1.97 Bohr mag/cell
     absolute magnetization    =     1.99 Bohr mag/cell

     iteration #  4     ecut=    40.00 Ry     beta= 0.45
     Davidson diagonalization with overlap
     ethr =  2.72E-04,  avg # of iterations =  2.0

     negative rho (up, down):  4.544E-05 6.363E-05

     total cpu time spent up to now is        6.1 secs

     total energy              =    -717.23027794 Ry
     Harris-Foulkes estimate   =    -717.22201024 Ry
     estimated scf accuracy    <       0.02388029 Ry

     total magnetization       =     2.00 Bohr mag/cell
     absolute magnetization    =     2.02 Bohr mag/cell

     iteration #  5     ecut=    40.00 Ry     beta= 0.45
     Davidson diagonalization with overlap
     ethr =  4.26E-05,  avg # of iterations =  4.0

     negative rho (up, down):  6.813E-05 9.070E-05

     total cpu time spent up to now is        6.7 secs

     total energy              =    -717.23049419 Ry
     Harris-Foulkes estimate   =    -717.23564587 Ry
     estimated scf accuracy    <       0.08405637 Ry

     total magnetization       =     2.00 Bohr mag/cell
     absolute magnetization    =     2.04 Bohr mag/cell

     iteration #  6     ecut=    40.00 Ry     beta= 0.45
     Davidson diagonalization with overlap
     ethr =  4.26E-05,  avg # of iterations =  1.5

     negative rho (up, down):  8.568E-05 1.138E-04

     total cpu time spent up to now is        7.3 secs

     total energy              =    -717.23635188 Ry
     Harris-Foulkes estimate   =    -717.24110418 Ry
     estimated scf accuracy    <       0.11062098 Ry

     total magnetization       =     2.00 Bohr mag/cell
     absolute magnetization    =     2.06 Bohr mag/cell

     iteration #  7     ecut=    40.00 Ry     beta= 0.45
     Davidson diagonalization with overlap
     ethr =  4.26E-05,  avg # of iterations =  1.0

     negative rho (up, down):  8.030E-05 1.135E-04

     total cpu time spent up to now is        7.8 secs

     total energy              =    -717.23912376 Ry
     Harris-Foulkes estimate   =    -717.23910764 Ry
     estimated scf accuracy    <       0.00036510 Ry

     total magnetization       =     2.00 Bohr mag/cell
     absolute magnetization    =     2.08 Bohr mag/cell

     iteration #  8     ecut=    40.00 Ry     beta= 0.45
     Davidson diagonalization with overlap
     ethr =  6.52E-07,  avg # of iterations = 11.0

     negative rho (up, down):  7.897E-05 1.131E-04

     total cpu time spent up to now is        8.5 secs

     total energy              =    -717.23918081 Ry
     Harris-Foulkes estimate   =    -717.23917252 Ry
     estimated scf accuracy    <       0.00009792 Ry

     total magnetization       =     2.00 Bohr mag/cell
     absolute magnetization    =     2.09 Bohr mag/cell

     iteration #  9     ecut=    40.00 Ry     beta= 0.45
     Davidson diagonalization with overlap
     ethr =  1.75E-07,  avg # of iterations =  1.0

     negative rho (up, down):  7.805E-05 1.132E-04

     Magnetic moment per site:
     atom:    1    charge:    2.2825    magn:    0.0083    constr:    0.0000
     atom:    2    charge:    2.2791    magn:    0.0084    constr:    0.0000
     atom:    3    charge:    8.0270    magn:    0.0267    constr:    0.0000
     atom:    4    charge:    8.0233    magn:    0.0274    constr:    0.0000

     total cpu time spent up to now is        9.0 secs

     End of self-consistent calculation

 ------ SPIN UP ------------


          k = 0.0000 0.0000 0.0000 (  4621 PWs)   bands (ev):

   -43.9335 -43.9254 -43.9182 -43.8896 -43.8856 -43.8833 -43.8809 -43.8796
   -43.8419 -43.8365  -9.3741  -9.2144  -4.9509  -4.9104  -4.8996  -4.8477
    -4.8430  -4.8109  -4.7916  -4.7890  -4.7864  -4.7822  -1.2196   1.3978
     1.6427   1.7003   2.0681   2.0848   2.1477   4.9693   7.9268   8.2051
     8.2516   8.4723   9.2010   9.2346   9.9941  10.8890  11.0233  11.9429

 ------ SPIN DOWN ----------


          k = 0.0000 0.0000 0.0000 (  4621 PWs)   bands (ev):

   -43.8396 -43.8138 -43.8079 -43.7976 -43.7770 -43.7729 -43.7257 -43.7218
   -43.6873 -43.6819  -8.6536  -8.4735  -4.9203  -4.8589  -4.8518  -4.8079
    -4.8050  -4.7902  -4.7863  -4.7861  -4.7811  -4.7672  -1.0595   1.6720
     2.2687   2.5556   2.6180   3.0435   3.0612   5.0991   8.0804   8.3255
     8.3725   8.6409   9.4204   9.4602  10.0274  11.1777  11.3105  12.0056

     the Fermi energy is     2.8299 ev

!    total energy              =    -717.23918974 Ry
     Harris-Foulkes estimate   =    -717.23918526 Ry
     estimated scf accuracy    <       0.00000341 Ry

     The total energy is the sum of the following terms:

     one-electron contribution =    -608.97612767 Ry
     hartree contribution      =     323.73474699 Ry
     xc contribution           =    -102.42943177 Ry
     ewald contribution        =    -329.56837712 Ry
     smearing contrib. (-TS)   =      -0.00000017 Ry

     total magnetization       =     2.00 Bohr mag/cell
     absolute magnetization    =     2.09 Bohr mag/cell

     convergence has been achieved in   9 iterations

     Writing output data file x0.save

     init_run     :      1.92s CPU      1.97s WALL (       1 calls)
     electrons    :      5.49s CPU      5.69s WALL (       1 calls)

     Called by init_run:
     wfcinit      :      0.06s CPU      0.07s WALL (       1 calls)
     potinit      :      0.53s CPU      0.54s WALL (       1 calls)

     Called by electrons:
     c_bands      :      1.92s CPU      2.01s WALL (      10 calls)
     sum_band     :      2.13s CPU      2.16s WALL (      10 calls)
     v_of_rho     :      0.61s CPU      0.62s WALL (      10 calls)
     newd         :      0.93s CPU      0.95s WALL (      10 calls)
     mix_rho      :      0.04s CPU      0.04s WALL (      10 calls)

     Called by c_bands:
     init_us_2    :      0.04s CPU      0.04s WALL (      42 calls)
     cegterg      :      1.83s CPU      1.91s WALL (      20 calls)

     Called by sum_band:
     sum_band:bec :      0.00s CPU      0.00s WALL (      20 calls)
     addusdens    :      1.82s CPU      1.83s WALL (      10 calls)

     Called by *egterg:
     h_psi        :      1.29s CPU      1.37s WALL (      97 calls)
     s_psi        :      0.05s CPU      0.05s WALL (      97 calls)
     g_psi        :      0.01s CPU      0.01s WALL (      75 calls)
     cdiaghg      :      0.29s CPU      0.30s WALL (      93 calls)

     Called by h_psi:
     h_psi:pot    :      1.27s CPU      1.35s WALL (      97 calls)
     h_psi:calbec :      0.05s CPU      0.05s WALL (      97 calls)
     vloc_psi     :      1.17s CPU      1.25s WALL (      97 calls)
     add_vuspsi   :      0.05s CPU      0.05s WALL (      97 calls)

     General routines
     calbec       :      0.07s CPU      0.07s WALL (     117 calls)
     fft          :      0.13s CPU      0.14s WALL (     252 calls)
     fftw         :      1.27s CPU      1.35s WALL (    4558 calls)

     Parallel routines
     fft_scatt_xy :      0.16s CPU      0.17s WALL (    4810 calls)
     fft_scatt_yz :      0.29s CPU      0.31s WALL (    4810 calls)

     PWSCF        :     8.72s CPU         9.41s WALL


   This run was terminated on:  15: 7:46  12Jul2022            

=------------------------------------------------------------------------------=
   JOB DONE.
=------------------------------------------------------------------------------=
