
     Program PWSCF v.6.2 (svn rev. 14038) starts on 12Jul2022 at 15: 6:42 

     This program is part of the open-source Quantum ESPRESSO suite
     for quantum simulation of materials; please cite
         "P. Giannozzi et al., J. Phys.:Condens. Matter 21 395502 (2009);
         "P. Giannozzi et al., J. Phys.:Condens. Matter 29 465901 (2017);
          URL http://www.quantum-espresso.org", 
     in publications or presentations arising from this work. More details at
     http://www.quantum-espresso.org/quote

     Parallel version (MPI), running on     4 processors

     MPI processes distributed on     1 nodes
     R & G space division:  proc/nbgrp/npool/nimage =       4
     Waiting for input...
     Reading input from standard input
Warning: card &IONS ignored
Warning: card   ION_DYNAMICS = 'VERLET', ignored
Warning: card   ION_TEMPERATURE = 'ANDERSEN', ignored
Warning: card   TEMPW = 300.00 , ignored
Warning: card   NRAISE = 1, ignored
Warning: card / ignored

     Current dimensions of program PWSCF are:
     Max number of different atomic species (ntypx) = 10
     Max number of k-points (npk) =  40000
     Max angular momentum in pseudopotentials (lmaxx) =  3
               file Cd.pbe-n-rrkjus_psl.1.0.0.UPF: wavefunction(s)  4D renormalized

     Subspace diagonalization in iterative solution of the eigenvalue problem:
     a serial algorithm will be used


     Parallelization info
     --------------------
     sticks:   dense  smooth     PW     G-vecs:    dense   smooth      PW
     Min         215     215     52                 9295     9295    1151
     Max         216     216     53                 9298     9298    1158
     Sum         863     863    211                37187    37187    4621



     bravais-lattice index     =            0
     lattice parameter (alat)  =       1.8900  a.u.
     unit-cell volume          =    1089.4295 (a.u.)^3
     number of atoms/cell      =            4
     number of atomic types    =            2
     number of electrons       =        56.00
     number of Kohn-Sham states=           40
     kinetic-energy cutoff     =      40.0000  Ry
     charge density cutoff     =     160.0000  Ry
     convergence threshold     =      1.0E-05
     mixing beta               =       0.4500
     number of iterations used =            8  plain     mixing
     Exchange-correlation      = PBE ( 1  4  3  4 0 0)

     celldm(1)=   1.890000  celldm(2)=   0.000000  celldm(3)=   0.000000
     celldm(4)=   0.000000  celldm(5)=   0.000000  celldm(6)=   0.000000

     crystal axes: (cart. coord. in units of alat)
               a(1) = (   4.716987  -0.015513  -0.002401 )  
               a(2) = (  -2.371927   4.062830  -0.000274 )  
               a(3) = (  -0.002553  -0.001388   8.436361 )  

     reciprocal axes: (cart. coord. in units 2 pi/alat)
               b(1) = (  0.212408  0.124006  0.000085 )  
               b(2) = (  0.000811  0.246607  0.000041 )  
               b(3) = (  0.000060  0.000043  0.118535 )  


     PseudoPot. # 1 for Cd read from file:
     /projects/academic/cyberwksp21/Students/jstetzler/QE_examples/Tutorials_QE_and_eQE/6_nac_workflow/step2b/PP/Cd.pbe-n-rrkjus_psl.1.0.0.UPF
     MD5 check sum: a744746c89d2344a134ead0d8ab94e7a
     Pseudo is Ultrasoft + core correction, Zval = 12.0
     Generated using "atomic" code by A. Dal Corso v.6.3
     Using radial grid of 1239 points,  6 beta functions with: 
                l(1) =   0
                l(2) =   0
                l(3) =   1
                l(4) =   1
                l(5) =   2
                l(6) =   2
     Q(r) pseudized with 0 coefficients 


     PseudoPot. # 2 for Se read from file:
     /projects/academic/cyberwksp21/Students/jstetzler/QE_examples/Tutorials_QE_and_eQE/6_nac_workflow/step2b/PP/Se.pbe-dn-rrkjus_psl.1.0.0.UPF
     MD5 check sum: 497c2ee764913186385bad8d0f9c7a86
     Pseudo is Ultrasoft + core correction, Zval = 16.0
     Generated using "atomic" code by A. Dal Corso v.6.3
     Using radial grid of 1211 points,  6 beta functions with: 
                l(1) =   0
                l(2) =   0
                l(3) =   1
                l(4) =   1
                l(5) =   2
                l(6) =   2
     Q(r) pseudized with 0 coefficients 


     atomic species   valence    mass     pseudopotential
        Cd            12.00   121.41100     Cd( 1.00)
        Se            16.00    78.96000     Se( 1.00)

     Starting magnetic structure 
     atomic species   magnetization
        Cd           0.100
        Se           0.000

     No symmetry found



   Cartesian axes

     site n.     atom                  positions (alat units)
         1           Cd  tau(   1) = (   0.0116800   2.6719121   8.8051419  )
         2           Cd  tau(   2) = (   2.3322983   1.3625257   4.5645764  )
         3           Se  tau(   3) = (  -0.0052468   2.7146307   2.8869221  )
         4           Se  tau(   4) = (   2.3427188   1.3479269   7.1074815  )

     number of k points=     1  gaussian smearing, width (Ry)=  0.0050
                       cart. coord. in units 2pi/alat
        k(    1) = (   0.0000000   0.0000000   0.0000000), wk =   1.0000000

     Dense  grid:    37187 G-vectors     FFT dimensions: (  36,  36,  72)

     Estimated max dynamical RAM per process >      40.32 MB

     Estimated total dynamical RAM >     161.26 MB
     Generating pointlists ...
     new r_m :   0.4125 (alat units)  0.7796 (a.u.) for type    1
     new r_m :   0.4125 (alat units)  0.7796 (a.u.) for type    2

     Initial potential from superposition of free atoms

     starting charge   55.99008, renormalised to   56.00000

     negative rho (up, down):  9.275E-07 5.148E-07
     Starting wfc are   36 randomized atomic wfcs +    4 random wfc

     total cpu time spent up to now is        3.5 secs

     Self-consistent Calculation

     iteration #  1     ecut=    40.00 Ry     beta= 0.45
     Davidson diagonalization with overlap
     ethr =  1.00E-02,  avg # of iterations =  7.0

     Threshold (ethr) on eigenvalues was too large:
     Diagonalizing with lowered threshold

     Davidson diagonalization with overlap
     ethr =  5.11E-04,  avg # of iterations =  1.0

     negative rho (up, down):  9.541E-06 2.833E-05

     total cpu time spent up to now is        4.5 secs

     total energy              =    -717.12520025 Ry
     Harris-Foulkes estimate   =    -717.23571518 Ry
     estimated scf accuracy    <       0.28175505 Ry

     total magnetization       =     1.44 Bohr mag/cell
     absolute magnetization    =     1.44 Bohr mag/cell

     iteration #  2     ecut=    40.00 Ry     beta= 0.45
     Davidson diagonalization with overlap
     ethr =  5.03E-04,  avg # of iterations =  2.0

     negative rho (up, down):  1.704E-05 3.003E-05

     total cpu time spent up to now is        5.0 secs

     total energy              =    -717.15817533 Ry
     Harris-Foulkes estimate   =    -717.21749212 Ry
     estimated scf accuracy    <       0.18847982 Ry

     total magnetization       =     1.66 Bohr mag/cell
     absolute magnetization    =     1.67 Bohr mag/cell

     iteration #  3     ecut=    40.00 Ry     beta= 0.45
     Davidson diagonalization with overlap
     ethr =  3.37E-04,  avg # of iterations =  6.0

     negative rho (up, down):  2.202E-05 3.562E-05

     total cpu time spent up to now is        5.6 secs

     total energy              =    -717.18916090 Ry
     Harris-Foulkes estimate   =    -717.32890087 Ry
     estimated scf accuracy    <       1.10819617 Ry

     total magnetization       =     1.94 Bohr mag/cell
     absolute magnetization    =     1.98 Bohr mag/cell

     iteration #  4     ecut=    40.00 Ry     beta= 0.45
     Davidson diagonalization with overlap
     ethr =  3.37E-04,  avg # of iterations =  2.0

     negative rho (up, down):  3.916E-05 5.668E-05

     total cpu time spent up to now is        6.1 secs

     total energy              =    -717.22568673 Ry
     Harris-Foulkes estimate   =    -717.22260980 Ry
     estimated scf accuracy    <       0.05556819 Ry

     total magnetization       =     2.00 Bohr mag/cell
     absolute magnetization    =     2.02 Bohr mag/cell

     iteration #  5     ecut=    40.00 Ry     beta= 0.45
     Davidson diagonalization with overlap
     ethr =  9.92E-05,  avg # of iterations =  3.0

     negative rho (up, down):  5.523E-05 7.673E-05

     total cpu time spent up to now is        6.7 secs

     total energy              =    -717.22532776 Ry
     Harris-Foulkes estimate   =    -717.23902154 Ry
     estimated scf accuracy    <       0.19872965 Ry

     total magnetization       =     2.00 Bohr mag/cell
     absolute magnetization    =     2.04 Bohr mag/cell

     iteration #  6     ecut=    40.00 Ry     beta= 0.45
     Davidson diagonalization with overlap
     ethr =  9.92E-05,  avg # of iterations =  1.0

     negative rho (up, down):  7.760E-05 1.083E-04

     total cpu time spent up to now is        7.2 secs

     total energy              =    -717.23696618 Ry
     Harris-Foulkes estimate   =    -717.23892310 Ry
     estimated scf accuracy    <       0.07334732 Ry

     total magnetization       =     2.00 Bohr mag/cell
     absolute magnetization    =     2.05 Bohr mag/cell

     iteration #  7     ecut=    40.00 Ry     beta= 0.45
     Davidson diagonalization with overlap
     ethr =  9.92E-05,  avg # of iterations =  1.0

     negative rho (up, down):  7.244E-05 1.079E-04

     total cpu time spent up to now is        7.7 secs

     total energy              =    -717.23897715 Ry
     Harris-Foulkes estimate   =    -717.23893916 Ry
     estimated scf accuracy    <       0.00016808 Ry

     total magnetization       =     2.00 Bohr mag/cell
     absolute magnetization    =     2.08 Bohr mag/cell

     iteration #  8     ecut=    40.00 Ry     beta= 0.45
     Davidson diagonalization with overlap
     ethr =  3.00E-07,  avg # of iterations = 10.0

     negative rho (up, down):  7.188E-05 1.081E-04

     total cpu time spent up to now is        8.4 secs

     total energy              =    -717.23904773 Ry
     Harris-Foulkes estimate   =    -717.23904870 Ry
     estimated scf accuracy    <       0.00058043 Ry

     total magnetization       =     2.00 Bohr mag/cell
     absolute magnetization    =     2.09 Bohr mag/cell

     iteration #  9     ecut=    40.00 Ry     beta= 0.45
     Davidson diagonalization with overlap
     ethr =  3.00E-07,  avg # of iterations =  1.0

     negative rho (up, down):  7.153E-05 1.086E-04

     total cpu time spent up to now is        9.0 secs

     total energy              =    -717.23905718 Ry
     Harris-Foulkes estimate   =    -717.23905626 Ry
     estimated scf accuracy    <       0.00008812 Ry

     total magnetization       =     2.00 Bohr mag/cell
     absolute magnetization    =     2.09 Bohr mag/cell

     iteration # 10     ecut=    40.00 Ry     beta= 0.45
     Davidson diagonalization with overlap
     ethr =  1.57E-07,  avg # of iterations =  1.0

     negative rho (up, down):  7.163E-05 1.092E-04

     Magnetic moment per site:
     atom:    1    charge:    2.2873    magn:    0.0085    constr:    0.0000
     atom:    2    charge:    2.2797    magn:    0.0083    constr:    0.0000
     atom:    3    charge:    8.0250    magn:    0.0267    constr:    0.0000
     atom:    4    charge:    8.0258    magn:    0.0274    constr:    0.0000

     total cpu time spent up to now is        9.5 secs

     End of self-consistent calculation

 ------ SPIN UP ------------


          k = 0.0000 0.0000 0.0000 (  4621 PWs)   bands (ev):

   -43.9329 -43.9270 -43.9152 -43.8900 -43.8870 -43.8830 -43.8795 -43.8788
   -43.8410 -43.8354  -9.3743  -9.2152  -4.9536  -4.9148  -4.9032  -4.8499
    -4.8446  -4.8125  -4.7991  -4.7959  -4.7849  -4.7801  -1.2170   1.4009
     1.6414   1.6960   2.0648   2.0826   2.1470   4.9673   7.9219   8.2147
     8.2474   8.4698   9.2009   9.2323   9.9951  10.8910  11.0240  11.9444

 ------ SPIN DOWN ----------


          k = 0.0000 0.0000 0.0000 (  4621 PWs)   bands (ev):

   -43.8387 -43.8146 -43.8056 -43.7981 -43.7780 -43.7723 -43.7253 -43.7212
   -43.6866 -43.6810  -8.6498  -8.4684  -4.9242  -4.8645  -4.8569  -4.8115
    -4.8079  -4.7988  -4.7946  -4.7853  -4.7802  -4.7698  -1.0601   1.6741
     2.2641   2.5610   2.6202   3.0474   3.0654   5.0950   8.0746   8.3310
     8.3643   8.6368   9.4210   9.4531  10.0273  11.1801  11.3112  12.0065

     the Fermi energy is     2.8330 ev

!    total energy              =    -717.23906181 Ry
     Harris-Foulkes estimate   =    -717.23906168 Ry
     estimated scf accuracy    <       0.00000184 Ry

     The total energy is the sum of the following terms:

     one-electron contribution =    -608.92606994 Ry
     hartree contribution      =     323.71375490 Ry
     xc contribution           =    -102.42983888 Ry
     ewald contribution        =    -329.59690773 Ry
     smearing contrib. (-TS)   =      -0.00000016 Ry

     total magnetization       =     2.00 Bohr mag/cell
     absolute magnetization    =     2.09 Bohr mag/cell

     convergence has been achieved in  10 iterations

     Writing output data file x0.save

     init_run     :      1.92s CPU      1.99s WALL (       1 calls)
     electrons    :      5.64s CPU      6.09s WALL (       1 calls)

     Called by init_run:
     wfcinit      :      0.06s CPU      0.07s WALL (       1 calls)
     potinit      :      0.53s CPU      0.54s WALL (       1 calls)

     Called by electrons:
     c_bands      :      1.89s CPU      2.10s WALL (      11 calls)
     sum_band     :      2.24s CPU      2.33s WALL (      11 calls)
     v_of_rho     :      0.64s CPU      0.68s WALL (      11 calls)
     newd         :      0.97s CPU      1.03s WALL (      11 calls)
     mix_rho      :      0.04s CPU      0.04s WALL (      11 calls)

     Called by c_bands:
     init_us_2    :      0.04s CPU      0.04s WALL (      46 calls)
     cegterg      :      1.80s CPU      2.00s WALL (      22 calls)

     Called by sum_band:
     sum_band:bec :      0.00s CPU      0.00s WALL (      22 calls)
     addusdens    :      1.92s CPU      1.96s WALL (      11 calls)

     Called by *egterg:
     h_psi        :      1.31s CPU      1.49s WALL (      94 calls)
     s_psi        :      0.04s CPU      0.04s WALL (      94 calls)
     g_psi        :      0.01s CPU      0.01s WALL (      70 calls)
     cdiaghg      :      0.28s CPU      0.29s WALL (      90 calls)

     Called by h_psi:
     h_psi:pot    :      1.30s CPU      1.48s WALL (      94 calls)
     h_psi:calbec :      0.05s CPU      0.05s WALL (      94 calls)
     vloc_psi     :      1.21s CPU      1.39s WALL (      94 calls)
     add_vuspsi   :      0.04s CPU      0.04s WALL (      94 calls)

     General routines
     calbec       :      0.07s CPU      0.07s WALL (     116 calls)
     fft          :      0.16s CPU      0.23s WALL (     277 calls)
     fftw         :      1.32s CPU      1.51s WALL (    4992 calls)

     Parallel routines
     fft_scatt_xy :      0.15s CPU      0.18s WALL (    5269 calls)
     fft_scatt_yz :      0.39s CPU      0.50s WALL (    5269 calls)

     PWSCF        :     8.92s CPU         9.89s WALL


   This run was terminated on:  15: 6:51  12Jul2022            

=------------------------------------------------------------------------------=
   JOB DONE.
=------------------------------------------------------------------------------=
