
     Program PWSCF v.6.2 (svn rev. 14038) starts on 12Jul2022 at 15: 7:47 

     This program is part of the open-source Quantum ESPRESSO suite
     for quantum simulation of materials; please cite
         "P. Giannozzi et al., J. Phys.:Condens. Matter 21 395502 (2009);
         "P. Giannozzi et al., J. Phys.:Condens. Matter 29 465901 (2017);
          URL http://www.quantum-espresso.org", 
     in publications or presentations arising from this work. More details at
     http://www.quantum-espresso.org/quote

     Parallel version (MPI), running on     4 processors

     MPI processes distributed on     1 nodes
     R & G space division:  proc/nbgrp/npool/nimage =       4
     Waiting for input...
     Reading input from standard input
Warning: card &IONS ignored
Warning: card   ION_DYNAMICS = 'VERLET', ignored
Warning: card   ION_TEMPERATURE = 'ANDERSEN', ignored
Warning: card   TEMPW = 300.00 , ignored
Warning: card   NRAISE = 1, ignored
Warning: card / ignored

     Current dimensions of program PWSCF are:
     Max number of different atomic species (ntypx) = 10
     Max number of k-points (npk) =  40000
     Max angular momentum in pseudopotentials (lmaxx) =  3
               file Cd.pbe-n-rrkjus_psl.1.0.0.UPF: wavefunction(s)  4D renormalized

     Subspace diagonalization in iterative solution of the eigenvalue problem:
     a serial algorithm will be used


     Parallelization info
     --------------------
     sticks:   dense  smooth     PW     G-vecs:    dense   smooth      PW
     Min         215     215     52                 9295     9295    1151
     Max         216     216     53                 9298     9298    1158
     Sum         863     863    211                37187    37187    4621



     bravais-lattice index     =            0
     lattice parameter (alat)  =       1.8900  a.u.
     unit-cell volume          =    1089.4295 (a.u.)^3
     number of atoms/cell      =            4
     number of atomic types    =            2
     number of electrons       =        56.00
     number of Kohn-Sham states=           40
     kinetic-energy cutoff     =      40.0000  Ry
     charge density cutoff     =     160.0000  Ry
     convergence threshold     =      1.0E-05
     mixing beta               =       0.4500
     number of iterations used =            8  plain     mixing
     Exchange-correlation      = PBE ( 1  4  3  4 0 0)

     celldm(1)=   1.890000  celldm(2)=   0.000000  celldm(3)=   0.000000
     celldm(4)=   0.000000  celldm(5)=   0.000000  celldm(6)=   0.000000

     crystal axes: (cart. coord. in units of alat)
               a(1) = (   4.716987  -0.015513  -0.002401 )  
               a(2) = (  -2.371927   4.062830  -0.000274 )  
               a(3) = (  -0.002553  -0.001388   8.436361 )  

     reciprocal axes: (cart. coord. in units 2 pi/alat)
               b(1) = (  0.212408  0.124006  0.000085 )  
               b(2) = (  0.000811  0.246607  0.000041 )  
               b(3) = (  0.000060  0.000043  0.118535 )  


     PseudoPot. # 1 for Cd read from file:
     /projects/academic/cyberwksp21/Students/jstetzler/QE_examples/Tutorials_QE_and_eQE/6_nac_workflow/step2b/PP/Cd.pbe-n-rrkjus_psl.1.0.0.UPF
     MD5 check sum: a744746c89d2344a134ead0d8ab94e7a
     Pseudo is Ultrasoft + core correction, Zval = 12.0
     Generated using "atomic" code by A. Dal Corso v.6.3
     Using radial grid of 1239 points,  6 beta functions with: 
                l(1) =   0
                l(2) =   0
                l(3) =   1
                l(4) =   1
                l(5) =   2
                l(6) =   2
     Q(r) pseudized with 0 coefficients 


     PseudoPot. # 2 for Se read from file:
     /projects/academic/cyberwksp21/Students/jstetzler/QE_examples/Tutorials_QE_and_eQE/6_nac_workflow/step2b/PP/Se.pbe-dn-rrkjus_psl.1.0.0.UPF
     MD5 check sum: 497c2ee764913186385bad8d0f9c7a86
     Pseudo is Ultrasoft + core correction, Zval = 16.0
     Generated using "atomic" code by A. Dal Corso v.6.3
     Using radial grid of 1211 points,  6 beta functions with: 
                l(1) =   0
                l(2) =   0
                l(3) =   1
                l(4) =   1
                l(5) =   2
                l(6) =   2
     Q(r) pseudized with 0 coefficients 


     atomic species   valence    mass     pseudopotential
        Cd            12.00   121.41100     Cd( 1.00)
        Se            16.00    78.96000     Se( 1.00)

     Starting magnetic structure 
     atomic species   magnetization
        Cd           0.100
        Se           0.000

     No symmetry found



   Cartesian axes

     site n.     atom                  positions (alat units)
         1           Cd  tau(   1) = (   0.0107491   2.6798515   8.8009789  )
         2           Cd  tau(   2) = (   2.3347926   1.3688982   4.5727043  )
         3           Se  tau(   3) = (  -0.0096756   2.6949288   2.8909906  )
         4           Se  tau(   4) = (   2.3447438   1.3456224   7.0973166  )

     number of k points=     1  gaussian smearing, width (Ry)=  0.0050
                       cart. coord. in units 2pi/alat
        k(    1) = (   0.0000000   0.0000000   0.0000000), wk =   1.0000000

     Dense  grid:    37187 G-vectors     FFT dimensions: (  36,  36,  72)

     Estimated max dynamical RAM per process >      40.32 MB

     Estimated total dynamical RAM >     161.26 MB
     Generating pointlists ...
     new r_m :   0.4125 (alat units)  0.7796 (a.u.) for type    1
     new r_m :   0.4125 (alat units)  0.7796 (a.u.) for type    2

     Initial potential from superposition of free atoms

     starting charge   55.99008, renormalised to   56.00000

     negative rho (up, down):  1.565E-06 7.911E-07
     Starting wfc are   36 randomized atomic wfcs +    4 random wfc

     total cpu time spent up to now is        3.7 secs

     Self-consistent Calculation

     iteration #  1     ecut=    40.00 Ry     beta= 0.45
     Davidson diagonalization with overlap
     ethr =  1.00E-02,  avg # of iterations =  7.0

     Threshold (ethr) on eigenvalues was too large:
     Diagonalizing with lowered threshold

     Davidson diagonalization with overlap
     ethr =  5.12E-04,  avg # of iterations =  1.0

     negative rho (up, down):  9.692E-06 2.919E-05

     total cpu time spent up to now is        4.7 secs

     total energy              =    -717.12547066 Ry
     Harris-Foulkes estimate   =    -717.23615618 Ry
     estimated scf accuracy    <       0.28211247 Ry

     total magnetization       =     1.45 Bohr mag/cell
     absolute magnetization    =     1.45 Bohr mag/cell

     iteration #  2     ecut=    40.00 Ry     beta= 0.45
     Davidson diagonalization with overlap
     ethr =  5.04E-04,  avg # of iterations =  2.0

     negative rho (up, down):  2.130E-05 3.413E-05

     total cpu time spent up to now is        5.2 secs

     total energy              =    -717.20109398 Ry
     Harris-Foulkes estimate   =    -717.21440951 Ry
     estimated scf accuracy    <       0.07203488 Ry

     total magnetization       =     1.67 Bohr mag/cell
     absolute magnetization    =     1.68 Bohr mag/cell

     iteration #  3     ecut=    40.00 Ry     beta= 0.45
     Davidson diagonalization with overlap
     ethr =  1.29E-04,  avg # of iterations =  5.0

     negative rho (up, down):  2.333E-05 3.682E-05

     total cpu time spent up to now is        5.9 secs

     total energy              =    -717.19052312 Ry
     Harris-Foulkes estimate   =    -717.25203651 Ry
     estimated scf accuracy    <       0.63004357 Ry

     total magnetization       =     2.00 Bohr mag/cell
     absolute magnetization    =     2.02 Bohr mag/cell

     iteration #  4     ecut=    40.00 Ry     beta= 0.45
     Davidson diagonalization with overlap
     ethr =  1.29E-04,  avg # of iterations =  1.5

     negative rho (up, down):  4.074E-05 5.713E-05

     total cpu time spent up to now is        6.4 secs

     total energy              =    -717.22804529 Ry
     Harris-Foulkes estimate   =    -717.22401282 Ry
     estimated scf accuracy    <       0.10405267 Ry

     total magnetization       =     2.00 Bohr mag/cell
     absolute magnetization    =     2.02 Bohr mag/cell

     iteration #  5     ecut=    40.00 Ry     beta= 0.45
     Davidson diagonalization with overlap
     ethr =  1.29E-04,  avg # of iterations =  1.0

     negative rho (up, down):  8.008E-05 1.040E-04

     total cpu time spent up to now is        6.9 secs

     total energy              =    -717.23682903 Ry
     Harris-Foulkes estimate   =    -717.23348478 Ry
     estimated scf accuracy    <       0.01988588 Ry

     total magnetization       =     2.00 Bohr mag/cell
     absolute magnetization    =     2.03 Bohr mag/cell

     iteration #  6     ecut=    40.00 Ry     beta= 0.45
     Davidson diagonalization with overlap
     ethr =  3.55E-05,  avg # of iterations =  2.0

     negative rho (up, down):  8.076E-05 1.086E-04

     total cpu time spent up to now is        7.5 secs

     total energy              =    -717.23846338 Ry
     Harris-Foulkes estimate   =    -717.23968669 Ry
     estimated scf accuracy    <       0.02444512 Ry

     total magnetization       =     2.00 Bohr mag/cell
     absolute magnetization    =     2.08 Bohr mag/cell

     iteration #  7     ecut=    40.00 Ry     beta= 0.45
     Davidson diagonalization with overlap
     ethr =  3.55E-05,  avg # of iterations =  1.0

     negative rho (up, down):  7.680E-05 1.089E-04

     total cpu time spent up to now is        8.0 secs

     total energy              =    -717.23914358 Ry
     Harris-Foulkes estimate   =    -717.23914113 Ry
     estimated scf accuracy    <       0.00006202 Ry

     total magnetization       =     2.00 Bohr mag/cell
     absolute magnetization    =     2.08 Bohr mag/cell

     iteration #  8     ecut=    40.00 Ry     beta= 0.45
     Davidson diagonalization with overlap
     ethr =  1.11E-07,  avg # of iterations = 13.0

     negative rho (up, down):  7.459E-05 1.084E-04

     total cpu time spent up to now is        8.8 secs

     total energy              =    -717.23918050 Ry
     Harris-Foulkes estimate   =    -717.23922325 Ry
     estimated scf accuracy    <       0.00091355 Ry

     total magnetization       =     2.00 Bohr mag/cell
     absolute magnetization    =     2.09 Bohr mag/cell

     iteration #  9     ecut=    40.00 Ry     beta= 0.45
     Davidson diagonalization with overlap
     ethr =  1.11E-07,  avg # of iterations =  1.5

     negative rho (up, down):  7.381E-05 1.090E-04

     total cpu time spent up to now is        9.3 secs

     total energy              =    -717.23921298 Ry
     Harris-Foulkes estimate   =    -717.23920955 Ry
     estimated scf accuracy    <       0.00001005 Ry

     total magnetization       =     2.00 Bohr mag/cell
     absolute magnetization    =     2.09 Bohr mag/cell

     iteration # 10     ecut=    40.00 Ry     beta= 0.45
     Davidson diagonalization with overlap
     ethr =  1.80E-08,  avg # of iterations =  2.5

     negative rho (up, down):  7.359E-05 1.096E-04

     Magnetic moment per site:
     atom:    1    charge:    2.2812    magn:    0.0083    constr:    0.0000
     atom:    2    charge:    2.2800    magn:    0.0085    constr:    0.0000
     atom:    3    charge:    8.0260    magn:    0.0268    constr:    0.0000
     atom:    4    charge:    8.0142    magn:    0.0272    constr:    0.0000

     total cpu time spent up to now is        9.8 secs

     End of self-consistent calculation

 ------ SPIN UP ------------


          k = 0.0000 0.0000 0.0000 (  4621 PWs)   bands (ev):

   -43.9295 -43.9177 -43.9130 -43.8984 -43.8964 -43.8920 -43.8762 -43.8716
   -43.8538 -43.8485  -9.3800  -9.2202  -4.9546  -4.9147  -4.9036  -4.8508
    -4.8459  -4.8151  -4.7967  -4.7934  -4.7885  -4.7836  -1.2217   1.3920
     1.6394   1.6975   2.0651   2.0814   2.1508   4.9741   7.9255   8.2120
     8.2501   8.4788   9.2162   9.2257   9.9944  10.8868  11.0221  11.9441

 ------ SPIN DOWN ----------


          k = 0.0000 0.0000 0.0000 (  4621 PWs)   bands (ev):

   -43.8366 -43.8072 -43.8060 -43.8032 -43.7873 -43.7833 -43.7191 -43.7143
   -43.6979 -43.6926  -8.6557  -8.4754  -4.9242  -4.8641  -4.8567  -4.8118
    -4.8089  -4.7958  -4.7917  -4.7894  -4.7833  -4.7717  -1.0647   1.6650
     2.2685   2.5579   2.6200   3.0472   3.0644   5.1018   8.0786   8.3279
     8.3660   8.6468   9.4315   9.4510  10.0257  11.1755  11.3096  12.0068

     the Fermi energy is     2.8328 ev

!    total energy              =    -717.23921146 Ry
     Harris-Foulkes estimate   =    -717.23921455 Ry
     estimated scf accuracy    <       0.00000452 Ry

     The total energy is the sum of the following terms:

     one-electron contribution =    -609.05336016 Ry
     hartree contribution      =     323.77391140 Ry
     xc contribution           =    -102.43095945 Ry
     ewald contribution        =    -329.52880309 Ry
     smearing contrib. (-TS)   =      -0.00000016 Ry

     total magnetization       =     2.00 Bohr mag/cell
     absolute magnetization    =     2.09 Bohr mag/cell

     convergence has been achieved in  10 iterations

     Writing output data file x0.save

     init_run     :      2.05s CPU      2.13s WALL (       1 calls)
     electrons    :      5.99s CPU      6.25s WALL (       1 calls)

     Called by init_run:
     wfcinit      :      0.06s CPU      0.07s WALL (       1 calls)
     potinit      :      0.55s CPU      0.56s WALL (       1 calls)

     Called by electrons:
     c_bands      :      2.07s CPU      2.19s WALL (      11 calls)
     sum_band     :      2.34s CPU      2.38s WALL (      11 calls)
     v_of_rho     :      0.66s CPU      0.68s WALL (      11 calls)
     newd         :      1.03s CPU      1.04s WALL (      11 calls)
     mix_rho      :      0.05s CPU      0.05s WALL (      11 calls)

     Called by c_bands:
     init_us_2    :      0.04s CPU      0.05s WALL (      46 calls)
     cegterg      :      1.97s CPU      2.09s WALL (      22 calls)

     Called by sum_band:
     sum_band:bec :      0.00s CPU      0.00s WALL (      22 calls)
     addusdens    :      2.01s CPU      2.02s WALL (      11 calls)

     Called by *egterg:
     h_psi        :      1.38s CPU      1.48s WALL (      99 calls)
     s_psi        :      0.05s CPU      0.05s WALL (      99 calls)
     g_psi        :      0.01s CPU      0.01s WALL (      75 calls)
     cdiaghg      :      0.32s CPU      0.33s WALL (      95 calls)

     Called by h_psi:
     h_psi:pot    :      1.36s CPU      1.47s WALL (      99 calls)
     h_psi:calbec :      0.05s CPU      0.06s WALL (      99 calls)
     vloc_psi     :      1.26s CPU      1.36s WALL (      99 calls)
     add_vuspsi   :      0.05s CPU      0.05s WALL (      99 calls)

     General routines
     calbec       :      0.07s CPU      0.08s WALL (     121 calls)
     fft          :      0.13s CPU      0.15s WALL (     277 calls)
     fftw         :      1.36s CPU      1.47s WALL (    5060 calls)

     Parallel routines
     fft_scatt_xy :      0.17s CPU      0.18s WALL (    5337 calls)
     fft_scatt_yz :      0.30s CPU      0.34s WALL (    5337 calls)

     PWSCF        :     9.52s CPU        10.28s WALL


   This run was terminated on:  15: 7:58  12Jul2022            

=------------------------------------------------------------------------------=
   JOB DONE.
=------------------------------------------------------------------------------=
