
     Program PWSCF v.6.2 (svn rev. 14038) starts on 12Jul2022 at 15: 5:13 

     This program is part of the open-source Quantum ESPRESSO suite
     for quantum simulation of materials; please cite
         "P. Giannozzi et al., J. Phys.:Condens. Matter 21 395502 (2009);
         "P. Giannozzi et al., J. Phys.:Condens. Matter 29 465901 (2017);
          URL http://www.quantum-espresso.org", 
     in publications or presentations arising from this work. More details at
     http://www.quantum-espresso.org/quote

     Parallel version (MPI), running on     4 processors

     MPI processes distributed on     1 nodes
     R & G space division:  proc/nbgrp/npool/nimage =       4
     Waiting for input...
     Reading input from standard input
Warning: card &IONS ignored
Warning: card   ION_DYNAMICS = 'VERLET', ignored
Warning: card   ION_TEMPERATURE = 'ANDERSEN', ignored
Warning: card   TEMPW = 300.00 , ignored
Warning: card   NRAISE = 1, ignored
Warning: card / ignored

     Current dimensions of program PWSCF are:
     Max number of different atomic species (ntypx) = 10
     Max number of k-points (npk) =  40000
     Max angular momentum in pseudopotentials (lmaxx) =  3
               file Cd.pbe-n-rrkjus_psl.1.0.0.UPF: wavefunction(s)  4D renormalized

     Subspace diagonalization in iterative solution of the eigenvalue problem:
     a serial algorithm will be used


     Parallelization info
     --------------------
     sticks:   dense  smooth     PW     G-vecs:    dense   smooth      PW
     Min         215     215     52                 9295     9295    1151
     Max         216     216     53                 9298     9298    1158
     Sum         863     863    211                37187    37187    4621



     bravais-lattice index     =            0
     lattice parameter (alat)  =       1.8900  a.u.
     unit-cell volume          =    1089.4295 (a.u.)^3
     number of atoms/cell      =            4
     number of atomic types    =            2
     number of electrons       =        56.00
     number of Kohn-Sham states=           40
     kinetic-energy cutoff     =      40.0000  Ry
     charge density cutoff     =     160.0000  Ry
     convergence threshold     =      1.0E-05
     mixing beta               =       0.4500
     number of iterations used =            8  plain     mixing
     Exchange-correlation      = PBE ( 1  4  3  4 0 0)

     celldm(1)=   1.890000  celldm(2)=   0.000000  celldm(3)=   0.000000
     celldm(4)=   0.000000  celldm(5)=   0.000000  celldm(6)=   0.000000

     crystal axes: (cart. coord. in units of alat)
               a(1) = (   4.716987  -0.015513  -0.002401 )  
               a(2) = (  -2.371927   4.062830  -0.000274 )  
               a(3) = (  -0.002553  -0.001388   8.436361 )  

     reciprocal axes: (cart. coord. in units 2 pi/alat)
               b(1) = (  0.212408  0.124006  0.000085 )  
               b(2) = (  0.000811  0.246607  0.000041 )  
               b(3) = (  0.000060  0.000043  0.118535 )  


     PseudoPot. # 1 for Cd read from file:
     /projects/academic/cyberwksp21/Students/jstetzler/QE_examples/Tutorials_QE_and_eQE/6_nac_workflow/step2b/PP/Cd.pbe-n-rrkjus_psl.1.0.0.UPF
     MD5 check sum: a744746c89d2344a134ead0d8ab94e7a
     Pseudo is Ultrasoft + core correction, Zval = 12.0
     Generated using "atomic" code by A. Dal Corso v.6.3
     Using radial grid of 1239 points,  6 beta functions with: 
                l(1) =   0
                l(2) =   0
                l(3) =   1
                l(4) =   1
                l(5) =   2
                l(6) =   2
     Q(r) pseudized with 0 coefficients 


     PseudoPot. # 2 for Se read from file:
     /projects/academic/cyberwksp21/Students/jstetzler/QE_examples/Tutorials_QE_and_eQE/6_nac_workflow/step2b/PP/Se.pbe-dn-rrkjus_psl.1.0.0.UPF
     MD5 check sum: 497c2ee764913186385bad8d0f9c7a86
     Pseudo is Ultrasoft + core correction, Zval = 16.0
     Generated using "atomic" code by A. Dal Corso v.6.3
     Using radial grid of 1211 points,  6 beta functions with: 
                l(1) =   0
                l(2) =   0
                l(3) =   1
                l(4) =   1
                l(5) =   2
                l(6) =   2
     Q(r) pseudized with 0 coefficients 


     atomic species   valence    mass     pseudopotential
        Cd            12.00   121.41100     Cd( 1.00)
        Se            16.00    78.96000     Se( 1.00)

     Starting magnetic structure 
     atomic species   magnetization
        Cd           0.100
        Se           0.000

     No symmetry found



   Cartesian axes

     site n.     atom                  positions (alat units)
         1           Cd  tau(   1) = (   0.0090517   2.6746418   8.8074194  )
         2           Cd  tau(   2) = (   2.3363198   1.3616411   4.5649379  )
         3           Se  tau(   3) = (  -0.0011580   2.7123217   2.8875573  )
         4           Se  tau(   4) = (   2.3364879   1.3473988   7.1027884  )

     number of k points=     1  gaussian smearing, width (Ry)=  0.0050
                       cart. coord. in units 2pi/alat
        k(    1) = (   0.0000000   0.0000000   0.0000000), wk =   1.0000000

     Dense  grid:    37187 G-vectors     FFT dimensions: (  36,  36,  72)

     Estimated max dynamical RAM per process >      40.32 MB

     Estimated total dynamical RAM >     161.26 MB
     Generating pointlists ...
     new r_m :   0.4125 (alat units)  0.7796 (a.u.) for type    1
     new r_m :   0.4125 (alat units)  0.7796 (a.u.) for type    2

     Initial potential from superposition of free atoms

     starting charge   55.99008, renormalised to   56.00000

     negative rho (up, down):  1.642E-06 8.564E-07
     Starting wfc are   36 randomized atomic wfcs +    4 random wfc

     total cpu time spent up to now is        3.4 secs

     Self-consistent Calculation

     iteration #  1     ecut=    40.00 Ry     beta= 0.45
     Davidson diagonalization with overlap
     ethr =  1.00E-02,  avg # of iterations =  7.0

     Threshold (ethr) on eigenvalues was too large:
     Diagonalizing with lowered threshold

     Davidson diagonalization with overlap
     ethr =  5.13E-04,  avg # of iterations =  1.0

     negative rho (up, down):  1.169E-05 3.102E-05

     total cpu time spent up to now is        4.5 secs

     total energy              =    -717.12498843 Ry
     Harris-Foulkes estimate   =    -717.23594918 Ry
     estimated scf accuracy    <       0.28251474 Ry

     total magnetization       =     1.45 Bohr mag/cell
     absolute magnetization    =     1.45 Bohr mag/cell

     iteration #  2     ecut=    40.00 Ry     beta= 0.45
     Davidson diagonalization with overlap
     ethr =  5.04E-04,  avg # of iterations =  2.0

     negative rho (up, down):  1.973E-05 3.346E-05

     total cpu time spent up to now is        5.0 secs

     total energy              =    -717.15660102 Ry
     Harris-Foulkes estimate   =    -717.21785547 Ry
     estimated scf accuracy    <       0.19444983 Ry

     total magnetization       =     1.66 Bohr mag/cell
     absolute magnetization    =     1.67 Bohr mag/cell

     iteration #  3     ecut=    40.00 Ry     beta= 0.45
     Davidson diagonalization with overlap
     ethr =  3.47E-04,  avg # of iterations =  6.0

     negative rho (up, down):  2.516E-05 3.959E-05

     total cpu time spent up to now is        5.6 secs

     total energy              =    -717.18940630 Ry
     Harris-Foulkes estimate   =    -717.33015935 Ry
     estimated scf accuracy    <       1.11274837 Ry

     total magnetization       =     1.94 Bohr mag/cell
     absolute magnetization    =     1.97 Bohr mag/cell

     iteration #  4     ecut=    40.00 Ry     beta= 0.45
     Davidson diagonalization with overlap
     ethr =  3.47E-04,  avg # of iterations =  2.0

     negative rho (up, down):  4.287E-05 6.078E-05

     total cpu time spent up to now is        6.2 secs

     total energy              =    -717.22501754 Ry
     Harris-Foulkes estimate   =    -717.22277474 Ry
     estimated scf accuracy    <       0.06066626 Ry

     total magnetization       =     2.00 Bohr mag/cell
     absolute magnetization    =     2.02 Bohr mag/cell

     iteration #  5     ecut=    40.00 Ry     beta= 0.45
     Davidson diagonalization with overlap
     ethr =  1.08E-04,  avg # of iterations =  3.0

     negative rho (up, down):  5.830E-05 8.066E-05

     total cpu time spent up to now is        6.7 secs

     total energy              =    -717.22489022 Ry
     Harris-Foulkes estimate   =    -717.23967053 Ry
     estimated scf accuracy    <       0.21500149 Ry

     total magnetization       =     2.00 Bohr mag/cell
     absolute magnetization    =     2.04 Bohr mag/cell

     iteration #  6     ecut=    40.00 Ry     beta= 0.45
     Davidson diagonalization with overlap
     ethr =  1.08E-04,  avg # of iterations =  1.0

     negative rho (up, down):  8.136E-05 1.109E-04

     total cpu time spent up to now is        7.3 secs

     total energy              =    -717.23719382 Ry
     Harris-Foulkes estimate   =    -717.23873855 Ry
     estimated scf accuracy    <       0.06752900 Ry

     total magnetization       =     2.00 Bohr mag/cell
     absolute magnetization    =     2.05 Bohr mag/cell

     iteration #  7     ecut=    40.00 Ry     beta= 0.45
     Davidson diagonalization with overlap
     ethr =  1.08E-04,  avg # of iterations =  1.0

     negative rho (up, down):  7.648E-05 1.105E-04

     total cpu time spent up to now is        7.8 secs

     total energy              =    -717.23902619 Ry
     Harris-Foulkes estimate   =    -717.23899102 Ry
     estimated scf accuracy    <       0.00023978 Ry

     total magnetization       =     2.00 Bohr mag/cell
     absolute magnetization    =     2.08 Bohr mag/cell

     iteration #  8     ecut=    40.00 Ry     beta= 0.45
     Davidson diagonalization with overlap
     ethr =  4.28E-07,  avg # of iterations =  8.5

     negative rho (up, down):  7.586E-05 1.107E-04

     total cpu time spent up to now is        8.5 secs

     total energy              =    -717.23910869 Ry
     Harris-Foulkes estimate   =    -717.23909353 Ry
     estimated scf accuracy    <       0.00029272 Ry

     total magnetization       =     2.00 Bohr mag/cell
     absolute magnetization    =     2.09 Bohr mag/cell

     iteration #  9     ecut=    40.00 Ry     beta= 0.45
     Davidson diagonalization with overlap
     ethr =  4.28E-07,  avg # of iterations =  1.0

     negative rho (up, down):  7.550E-05 1.111E-04

     total cpu time spent up to now is        9.0 secs

     total energy              =    -717.23909963 Ry
     Harris-Foulkes estimate   =    -717.23911246 Ry
     estimated scf accuracy    <       0.00023866 Ry

     total magnetization       =     2.00 Bohr mag/cell
     absolute magnetization    =     2.09 Bohr mag/cell

     iteration # 10     ecut=    40.00 Ry     beta= 0.45
     Davidson diagonalization with overlap
     ethr =  4.26E-07,  avg # of iterations =  1.0

     negative rho (up, down):  7.561E-05 1.114E-04

     total cpu time spent up to now is        9.6 secs

     total energy              =    -717.23911051 Ry
     Harris-Foulkes estimate   =    -717.23911490 Ry
     estimated scf accuracy    <       0.00006167 Ry

     total magnetization       =     2.00 Bohr mag/cell
     absolute magnetization    =     2.09 Bohr mag/cell

     iteration # 11     ecut=    40.00 Ry     beta= 0.45
     Davidson diagonalization with overlap
     ethr =  1.10E-07,  avg # of iterations =  1.0

     negative rho (up, down):  7.539E-05 1.115E-04

     total cpu time spent up to now is       10.1 secs

     total energy              =    -717.23911378 Ry
     Harris-Foulkes estimate   =    -717.23911437 Ry
     estimated scf accuracy    <       0.00001706 Ry

     total magnetization       =     2.00 Bohr mag/cell
     absolute magnetization    =     2.09 Bohr mag/cell

     iteration # 12     ecut=    40.00 Ry     beta= 0.45
     Davidson diagonalization with overlap
     ethr =  3.05E-08,  avg # of iterations =  1.0

     negative rho (up, down):  7.534E-05 1.116E-04

     Magnetic moment per site:
     atom:    1    charge:    2.2850    magn:    0.0085    constr:    0.0000
     atom:    2    charge:    2.2791    magn:    0.0085    constr:    0.0000
     atom:    3    charge:    8.0255    magn:    0.0267    constr:    0.0000
     atom:    4    charge:    8.0253    magn:    0.0274    constr:    0.0000

     total cpu time spent up to now is       10.6 secs

     End of self-consistent calculation

 ------ SPIN UP ------------


          k = 0.0000 0.0000 0.0000 (  4621 PWs)   bands (ev):

   -43.9392 -43.9335 -43.9216 -43.8923 -43.8892 -43.8879 -43.8860 -43.8808
   -43.8424 -43.8369  -9.3799  -9.2205  -4.9529  -4.9129  -4.9021  -4.8484
    -4.8437  -4.8126  -4.7967  -4.7938  -4.7836  -4.7796  -1.2194   1.3950
     1.6387   1.6939   2.0632   2.0810   2.1503   4.9728   7.9245   8.2104
     8.2542   8.4764   9.1996   9.2412   9.9958  10.8891  11.0222  11.9447

 ------ SPIN DOWN ----------


          k = 0.0000 0.0000 0.0000 (  4621 PWs)   bands (ev):

   -43.8448 -43.8209 -43.8118 -43.8003 -43.7793 -43.7742 -43.7310 -43.7272
   -43.6880 -43.6825  -8.6542  -8.4730  -4.9230  -4.8624  -4.8555  -4.8096
    -4.8065  -4.7964  -4.7921  -4.7839  -4.7795  -4.7693  -1.0640   1.6674
     2.2667   2.5595   2.6200   3.0481   3.0654   5.0993   8.0773   8.3241
     8.3687   8.6430   9.4172   9.4624  10.0264  11.1780  11.3093  12.0069

     the Fermi energy is     2.8332 ev

!    total energy              =    -717.23911377 Ry
     Harris-Foulkes estimate   =    -717.23911487 Ry
     estimated scf accuracy    <       0.00000180 Ry

     The total energy is the sum of the following terms:

     one-electron contribution =    -609.02105879 Ry
     hartree contribution      =     323.76030857 Ry
     xc contribution           =    -102.43071805 Ry
     ewald contribution        =    -329.54764534 Ry
     smearing contrib. (-TS)   =      -0.00000015 Ry

     total magnetization       =     2.00 Bohr mag/cell
     absolute magnetization    =     2.10 Bohr mag/cell

     convergence has been achieved in  12 iterations

     Writing output data file x0.save

     init_run     :      1.92s CPU      1.98s WALL (       1 calls)
     electrons    :      6.90s CPU      7.26s WALL (       1 calls)

     Called by init_run:
     wfcinit      :      0.06s CPU      0.07s WALL (       1 calls)
     potinit      :      0.53s CPU      0.54s WALL (       1 calls)

     Called by electrons:
     c_bands      :      2.26s CPU      2.46s WALL (      13 calls)
     sum_band     :      2.74s CPU      2.81s WALL (      13 calls)
     v_of_rho     :      0.79s CPU      0.82s WALL (      13 calls)
     newd         :      1.19s CPU      1.21s WALL (      13 calls)
     mix_rho      :      0.06s CPU      0.06s WALL (      13 calls)

     Called by c_bands:
     init_us_2    :      0.05s CPU      0.05s WALL (      54 calls)
     cegterg      :      2.14s CPU      2.34s WALL (      26 calls)

     Called by sum_band:
     sum_band:bec :      0.00s CPU      0.00s WALL (      26 calls)
     addusdens    :      2.34s CPU      2.37s WALL (      13 calls)

     Called by *egterg:
     h_psi        :      1.57s CPU      1.75s WALL (      99 calls)
     s_psi        :      0.05s CPU      0.05s WALL (      99 calls)
     g_psi        :      0.01s CPU      0.01s WALL (      71 calls)
     cdiaghg      :      0.29s CPU      0.30s WALL (      95 calls)

     Called by h_psi:
     h_psi:pot    :      1.56s CPU      1.74s WALL (      99 calls)
     h_psi:calbec :      0.06s CPU      0.06s WALL (      99 calls)
     vloc_psi     :      1.45s CPU      1.62s WALL (      99 calls)
     add_vuspsi   :      0.05s CPU      0.05s WALL (      99 calls)

     General routines
     calbec       :      0.08s CPU      0.09s WALL (     125 calls)
     fft          :      0.17s CPU      0.20s WALL (     327 calls)
     fftw         :      1.58s CPU      1.77s WALL (    5776 calls)

     Parallel routines
     fft_scatt_xy :      0.19s CPU      0.21s WALL (    6103 calls)
     fft_scatt_yz :      0.41s CPU      0.49s WALL (    6103 calls)

     PWSCF        :    10.17s CPU        10.98s WALL


   This run was terminated on:  15: 5:23  12Jul2022            

=------------------------------------------------------------------------------=
   JOB DONE.
=------------------------------------------------------------------------------=
