
     Program PWSCF v.6.2 (svn rev. 14038) starts on 12Jul2022 at 15: 4:59 

     This program is part of the open-source Quantum ESPRESSO suite
     for quantum simulation of materials; please cite
         "P. Giannozzi et al., J. Phys.:Condens. Matter 21 395502 (2009);
         "P. Giannozzi et al., J. Phys.:Condens. Matter 29 465901 (2017);
          URL http://www.quantum-espresso.org", 
     in publications or presentations arising from this work. More details at
     http://www.quantum-espresso.org/quote

     Parallel version (MPI), running on     4 processors

     MPI processes distributed on     1 nodes
     R & G space division:  proc/nbgrp/npool/nimage =       4
     Waiting for input...
     Reading input from standard input
Warning: card &IONS ignored
Warning: card   ION_DYNAMICS = 'VERLET', ignored
Warning: card   ION_TEMPERATURE = 'ANDERSEN', ignored
Warning: card   TEMPW = 300.00 , ignored
Warning: card   NRAISE = 1, ignored
Warning: card / ignored

     Current dimensions of program PWSCF are:
     Max number of different atomic species (ntypx) = 10
     Max number of k-points (npk) =  40000
     Max angular momentum in pseudopotentials (lmaxx) =  3
               file Cd.pbe-n-rrkjus_psl.1.0.0.UPF: wavefunction(s)  4D renormalized

     Subspace diagonalization in iterative solution of the eigenvalue problem:
     a serial algorithm will be used


     Parallelization info
     --------------------
     sticks:   dense  smooth     PW     G-vecs:    dense   smooth      PW
     Min         215     215     52                 9295     9295    1151
     Max         216     216     53                 9298     9298    1158
     Sum         863     863    211                37187    37187    4621



     bravais-lattice index     =            0
     lattice parameter (alat)  =       1.8900  a.u.
     unit-cell volume          =    1089.4295 (a.u.)^3
     number of atoms/cell      =            4
     number of atomic types    =            2
     number of electrons       =        56.00
     number of Kohn-Sham states=           40
     kinetic-energy cutoff     =      40.0000  Ry
     charge density cutoff     =     160.0000  Ry
     convergence threshold     =      1.0E-05
     mixing beta               =       0.4500
     number of iterations used =            8  plain     mixing
     Exchange-correlation      = PBE ( 1  4  3  4 0 0)

     celldm(1)=   1.890000  celldm(2)=   0.000000  celldm(3)=   0.000000
     celldm(4)=   0.000000  celldm(5)=   0.000000  celldm(6)=   0.000000

     crystal axes: (cart. coord. in units of alat)
               a(1) = (   4.716987  -0.015513  -0.002401 )  
               a(2) = (  -2.371927   4.062830  -0.000274 )  
               a(3) = (  -0.002553  -0.001388   8.436361 )  

     reciprocal axes: (cart. coord. in units 2 pi/alat)
               b(1) = (  0.212408  0.124006  0.000085 )  
               b(2) = (  0.000811  0.246607  0.000041 )  
               b(3) = (  0.000060  0.000043  0.118535 )  


     PseudoPot. # 1 for Cd read from file:
     /projects/academic/cyberwksp21/Students/jstetzler/QE_examples/Tutorials_QE_and_eQE/6_nac_workflow/step2b/PP/Cd.pbe-n-rrkjus_psl.1.0.0.UPF
     MD5 check sum: a744746c89d2344a134ead0d8ab94e7a
     Pseudo is Ultrasoft + core correction, Zval = 12.0
     Generated using "atomic" code by A. Dal Corso v.6.3
     Using radial grid of 1239 points,  6 beta functions with: 
                l(1) =   0
                l(2) =   0
                l(3) =   1
                l(4) =   1
                l(5) =   2
                l(6) =   2
     Q(r) pseudized with 0 coefficients 


     PseudoPot. # 2 for Se read from file:
     /projects/academic/cyberwksp21/Students/jstetzler/QE_examples/Tutorials_QE_and_eQE/6_nac_workflow/step2b/PP/Se.pbe-dn-rrkjus_psl.1.0.0.UPF
     MD5 check sum: 497c2ee764913186385bad8d0f9c7a86
     Pseudo is Ultrasoft + core correction, Zval = 16.0
     Generated using "atomic" code by A. Dal Corso v.6.3
     Using radial grid of 1211 points,  6 beta functions with: 
                l(1) =   0
                l(2) =   0
                l(3) =   1
                l(4) =   1
                l(5) =   2
                l(6) =   2
     Q(r) pseudized with 0 coefficients 


     atomic species   valence    mass     pseudopotential
        Cd            12.00   121.41100     Cd( 1.00)
        Se            16.00    78.96000     Se( 1.00)

     Starting magnetic structure 
     atomic species   magnetization
        Cd           0.100
        Se           0.000

     No symmetry found



   Cartesian axes

     site n.     atom                  positions (alat units)
         1           Cd  tau(   1) = (   0.0090511   2.6805286   8.7997001  )
         2           Cd  tau(   2) = (   2.3342268   1.3667722   4.5718304  )
         3           Se  tau(   3) = (  -0.0082694   2.6954667   2.8944026  )
         4           Se  tau(   4) = (   2.3468185   1.3473123   7.0972146  )

     number of k points=     1  gaussian smearing, width (Ry)=  0.0050
                       cart. coord. in units 2pi/alat
        k(    1) = (   0.0000000   0.0000000   0.0000000), wk =   1.0000000

     Dense  grid:    37187 G-vectors     FFT dimensions: (  36,  36,  72)

     Estimated max dynamical RAM per process >      40.32 MB

     Estimated total dynamical RAM >     161.26 MB
     Generating pointlists ...
     new r_m :   0.4125 (alat units)  0.7796 (a.u.) for type    1
     new r_m :   0.4125 (alat units)  0.7796 (a.u.) for type    2

     Initial potential from superposition of free atoms

     starting charge   55.99008, renormalised to   56.00000

     negative rho (up, down):  1.708E-06 9.101E-07
     Starting wfc are   36 randomized atomic wfcs +    4 random wfc

     total cpu time spent up to now is        3.4 secs

     Self-consistent Calculation

     iteration #  1     ecut=    40.00 Ry     beta= 0.45
     Davidson diagonalization with overlap
     ethr =  1.00E-02,  avg # of iterations =  7.0

     Threshold (ethr) on eigenvalues was too large:
     Diagonalizing with lowered threshold

     Davidson diagonalization with overlap
     ethr =  5.11E-04,  avg # of iterations =  1.0

     negative rho (up, down):  1.029E-05 2.981E-05

     total cpu time spent up to now is        4.4 secs

     total energy              =    -717.12553018 Ry
     Harris-Foulkes estimate   =    -717.23600098 Ry
     estimated scf accuracy    <       0.28174000 Ry

     total magnetization       =     1.45 Bohr mag/cell
     absolute magnetization    =     1.45 Bohr mag/cell

     iteration #  2     ecut=    40.00 Ry     beta= 0.45
     Davidson diagonalization with overlap
     ethr =  5.03E-04,  avg # of iterations =  2.0

     negative rho (up, down):  2.260E-05 3.625E-05

     total cpu time spent up to now is        5.0 secs

     total energy              =    -717.20287463 Ry
     Harris-Foulkes estimate   =    -717.21430988 Ry
     estimated scf accuracy    <       0.06821022 Ry

     total magnetization       =     1.68 Bohr mag/cell
     absolute magnetization    =     1.69 Bohr mag/cell

     iteration #  3     ecut=    40.00 Ry     beta= 0.45
     Davidson diagonalization with overlap
     ethr =  1.22E-04,  avg # of iterations =  5.0

     negative rho (up, down):  2.476E-05 3.886E-05

     total cpu time spent up to now is        5.6 secs

     total energy              =    -717.19201191 Ry
     Harris-Foulkes estimate   =    -717.24546784 Ry
     estimated scf accuracy    <       0.56013068 Ry

     total magnetization       =     2.00 Bohr mag/cell
     absolute magnetization    =     2.02 Bohr mag/cell

     iteration #  4     ecut=    40.00 Ry     beta= 0.45
     Davidson diagonalization with overlap
     ethr =  1.22E-04,  avg # of iterations =  1.5

     negative rho (up, down):  4.238E-05 5.923E-05

     total cpu time spent up to now is        6.1 secs

     total energy              =    -717.22741841 Ry
     Harris-Foulkes estimate   =    -717.22492316 Ry
     estimated scf accuracy    <       0.13280165 Ry

     total magnetization       =     2.00 Bohr mag/cell
     absolute magnetization    =     2.02 Bohr mag/cell

     iteration #  5     ecut=    40.00 Ry     beta= 0.45
     Davidson diagonalization with overlap
     ethr =  1.22E-04,  avg # of iterations =  1.0

     negative rho (up, down):  8.336E-05 1.068E-04

     total cpu time spent up to now is        6.6 secs

     total energy              =    -717.23738583 Ry
     Harris-Foulkes estimate   =    -717.23335786 Ry
     estimated scf accuracy    <       0.01475493 Ry

     total magnetization       =     2.00 Bohr mag/cell
     absolute magnetization    =     2.03 Bohr mag/cell

     iteration #  6     ecut=    40.00 Ry     beta= 0.45
     Davidson diagonalization with overlap
     ethr =  2.63E-05,  avg # of iterations =  1.5

     negative rho (up, down):  8.429E-05 1.108E-04

     total cpu time spent up to now is        7.2 secs

     total energy              =    -717.23877969 Ry
     Harris-Foulkes estimate   =    -717.23944267 Ry
     estimated scf accuracy    <       0.01316710 Ry

     total magnetization       =     2.00 Bohr mag/cell
     absolute magnetization    =     2.08 Bohr mag/cell

     iteration #  7     ecut=    40.00 Ry     beta= 0.45
     Davidson diagonalization with overlap
     ethr =  2.35E-05,  avg # of iterations =  1.0

     negative rho (up, down):  8.078E-05 1.109E-04

     total cpu time spent up to now is        7.7 secs

     total energy              =    -717.23919109 Ry
     Harris-Foulkes estimate   =    -717.23918533 Ry
     estimated scf accuracy    <       0.00005894 Ry

     total magnetization       =     2.00 Bohr mag/cell
     absolute magnetization    =     2.08 Bohr mag/cell

     iteration #  8     ecut=    40.00 Ry     beta= 0.45
     Davidson diagonalization with overlap
     ethr =  1.05E-07,  avg # of iterations = 14.0

     negative rho (up, down):  7.770E-05 1.105E-04

     total cpu time spent up to now is        8.5 secs

     total energy              =    -717.23922211 Ry
     Harris-Foulkes estimate   =    -717.23924477 Ry
     estimated scf accuracy    <       0.00048615 Ry

     total magnetization       =     2.00 Bohr mag/cell
     absolute magnetization    =     2.09 Bohr mag/cell

     iteration #  9     ecut=    40.00 Ry     beta= 0.45
     Davidson diagonalization with overlap
     ethr =  1.05E-07,  avg # of iterations =  1.5

     negative rho (up, down):  7.657E-05 1.112E-04

     total cpu time spent up to now is        9.0 secs

     total energy              =    -717.23924430 Ry
     Harris-Foulkes estimate   =    -717.23924360 Ry
     estimated scf accuracy    <       0.00003878 Ry

     total magnetization       =     2.00 Bohr mag/cell
     absolute magnetization    =     2.09 Bohr mag/cell

     iteration # 10     ecut=    40.00 Ry     beta= 0.45
     Davidson diagonalization with overlap
     ethr =  6.93E-08,  avg # of iterations =  1.0

     negative rho (up, down):  7.613E-05 1.118E-04

     Magnetic moment per site:
     atom:    1    charge:    2.2805    magn:    0.0083    constr:    0.0000
     atom:    2    charge:    2.2798    magn:    0.0085    constr:    0.0000
     atom:    3    charge:    8.0266    magn:    0.0269    constr:    0.0000
     atom:    4    charge:    8.0138    magn:    0.0272    constr:    0.0000

     total cpu time spent up to now is        9.5 secs

     End of self-consistent calculation

 ------ SPIN UP ------------


          k = 0.0000 0.0000 0.0000 (  4621 PWs)   bands (ev):

   -43.9286 -43.9164 -43.9131 -43.8970 -43.8955 -43.8908 -43.8756 -43.8711
   -43.8528 -43.8477  -9.3774  -9.2174  -4.9535  -4.9136  -4.9031  -4.8492
    -4.8443  -4.8131  -4.7977  -4.7942  -4.7853  -4.7809  -1.2192   1.3967
     1.6404   1.6972   2.0647   2.0811   2.1487   4.9703   7.9253   8.2108
     8.2498   8.4738   9.2138   9.2233   9.9946  10.8890  11.0223  11.9434

 ------ SPIN DOWN ----------


          k = 0.0000 0.0000 0.0000 (  4621 PWs)   bands (ev):

   -43.8358 -43.8063 -43.8047 -43.8030 -43.7865 -43.7819 -43.7185 -43.7137
   -43.6969 -43.6918  -8.6523  -8.4721  -4.9235  -4.8632  -4.8561  -4.8106
    -4.8075  -4.7969  -4.7925  -4.7860  -4.7807  -4.7703  -1.0624   1.6696
     2.2665   2.5592   2.6199   3.0473   3.0646   5.0978   8.0784   8.3267
     8.3655   8.6412   9.4297   9.4483  10.0257  11.1776  11.3097  12.0059

     the Fermi energy is     2.8328 ev

!    total energy              =    -717.23924369 Ry
     Harris-Foulkes estimate   =    -717.23924656 Ry
     estimated scf accuracy    <       0.00000385 Ry

     The total energy is the sum of the following terms:

     one-electron contribution =    -608.98237622 Ry
     hartree contribution      =     323.73962007 Ry
     xc contribution           =    -102.43017164 Ry
     ewald contribution        =    -329.56631574 Ry
     smearing contrib. (-TS)   =      -0.00000016 Ry

     total magnetization       =     2.00 Bohr mag/cell
     absolute magnetization    =     2.09 Bohr mag/cell

     convergence has been achieved in  10 iterations

     Writing output data file x0.save

     init_run     :      1.92s CPU      1.97s WALL (       1 calls)
     electrons    :      5.95s CPU      6.19s WALL (       1 calls)

     Called by init_run:
     wfcinit      :      0.06s CPU      0.07s WALL (       1 calls)
     potinit      :      0.53s CPU      0.54s WALL (       1 calls)

     Called by electrons:
     c_bands      :      2.04s CPU      2.16s WALL (      11 calls)
     sum_band     :      2.32s CPU      2.36s WALL (      11 calls)
     v_of_rho     :      0.67s CPU      0.68s WALL (      11 calls)
     newd         :      1.02s CPU      1.04s WALL (      11 calls)
     mix_rho      :      0.05s CPU      0.05s WALL (      11 calls)

     Called by c_bands:
     init_us_2    :      0.04s CPU      0.04s WALL (      46 calls)
     cegterg      :      1.94s CPU      2.06s WALL (      22 calls)

     Called by sum_band:
     sum_band:bec :      0.00s CPU      0.00s WALL (      22 calls)
     addusdens    :      1.99s CPU      2.00s WALL (      11 calls)

     Called by *egterg:
     h_psi        :      1.37s CPU      1.47s WALL (      97 calls)
     s_psi        :      0.05s CPU      0.05s WALL (      97 calls)
     g_psi        :      0.01s CPU      0.01s WALL (      73 calls)
     cdiaghg      :      0.31s CPU      0.32s WALL (      93 calls)

     Called by h_psi:
     h_psi:pot    :      1.36s CPU      1.46s WALL (      97 calls)
     h_psi:calbec :      0.05s CPU      0.06s WALL (      97 calls)
     vloc_psi     :      1.26s CPU      1.36s WALL (      97 calls)
     add_vuspsi   :      0.05s CPU      0.05s WALL (      97 calls)

     General routines
     calbec       :      0.07s CPU      0.08s WALL (     119 calls)
     fft          :      0.14s CPU      0.15s WALL (     277 calls)
     fftw         :      1.36s CPU      1.47s WALL (    5018 calls)

     Parallel routines
     fft_scatt_xy :      0.17s CPU      0.18s WALL (    5295 calls)
     fft_scatt_yz :      0.31s CPU      0.34s WALL (    5295 calls)

     PWSCF        :     9.23s CPU         9.87s WALL


   This run was terminated on:  15: 5: 9  12Jul2022            

=------------------------------------------------------------------------------=
   JOB DONE.
=------------------------------------------------------------------------------=
