
     Program PWSCF v.6.2 (svn rev. 14038) starts on 12Jul2022 at 15: 7:38 

     This program is part of the open-source Quantum ESPRESSO suite
     for quantum simulation of materials; please cite
         "P. Giannozzi et al., J. Phys.:Condens. Matter 21 395502 (2009);
         "P. Giannozzi et al., J. Phys.:Condens. Matter 29 465901 (2017);
          URL http://www.quantum-espresso.org", 
     in publications or presentations arising from this work. More details at
     http://www.quantum-espresso.org/quote

     Parallel version (MPI), running on     4 processors

     MPI processes distributed on     1 nodes
     R & G space division:  proc/nbgrp/npool/nimage =       4
     Waiting for input...
     Reading input from standard input
Warning: card &IONS ignored
Warning: card   ION_DYNAMICS = 'VERLET', ignored
Warning: card   ION_TEMPERATURE = 'ANDERSEN', ignored
Warning: card   TEMPW = 300.00 , ignored
Warning: card   NRAISE = 1, ignored
Warning: card / ignored

     Current dimensions of program PWSCF are:
     Max number of different atomic species (ntypx) = 10
     Max number of k-points (npk) =  40000
     Max angular momentum in pseudopotentials (lmaxx) =  3
               file Cd.pbe-n-rrkjus_psl.1.0.0.UPF: wavefunction(s)  4D renormalized

     Subspace diagonalization in iterative solution of the eigenvalue problem:
     a serial algorithm will be used


     Parallelization info
     --------------------
     sticks:   dense  smooth     PW     G-vecs:    dense   smooth      PW
     Min         215     215     52                 9295     9295    1151
     Max         216     216     53                 9298     9298    1158
     Sum         863     863    211                37187    37187    4621



     bravais-lattice index     =            0
     lattice parameter (alat)  =       1.8900  a.u.
     unit-cell volume          =    1089.4295 (a.u.)^3
     number of atoms/cell      =            4
     number of atomic types    =            2
     number of electrons       =        56.00
     number of Kohn-Sham states=           40
     kinetic-energy cutoff     =      40.0000  Ry
     charge density cutoff     =     160.0000  Ry
     convergence threshold     =      1.0E-05
     mixing beta               =       0.4500
     number of iterations used =            8  plain     mixing
     Exchange-correlation      = PBE ( 1  4  3  4 0 0)

     celldm(1)=   1.890000  celldm(2)=   0.000000  celldm(3)=   0.000000
     celldm(4)=   0.000000  celldm(5)=   0.000000  celldm(6)=   0.000000

     crystal axes: (cart. coord. in units of alat)
               a(1) = (   4.716987  -0.015513  -0.002401 )  
               a(2) = (  -2.371927   4.062830  -0.000274 )  
               a(3) = (  -0.002553  -0.001388   8.436361 )  

     reciprocal axes: (cart. coord. in units 2 pi/alat)
               b(1) = (  0.212408  0.124006  0.000085 )  
               b(2) = (  0.000811  0.246607  0.000041 )  
               b(3) = (  0.000060  0.000043  0.118535 )  


     PseudoPot. # 1 for Cd read from file:
     /projects/academic/cyberwksp21/Students/jstetzler/QE_examples/Tutorials_QE_and_eQE/6_nac_workflow/step2b/PP/Cd.pbe-n-rrkjus_psl.1.0.0.UPF
     MD5 check sum: a744746c89d2344a134ead0d8ab94e7a
     Pseudo is Ultrasoft + core correction, Zval = 12.0
     Generated using "atomic" code by A. Dal Corso v.6.3
     Using radial grid of 1239 points,  6 beta functions with: 
                l(1) =   0
                l(2) =   0
                l(3) =   1
                l(4) =   1
                l(5) =   2
                l(6) =   2
     Q(r) pseudized with 0 coefficients 


     PseudoPot. # 2 for Se read from file:
     /projects/academic/cyberwksp21/Students/jstetzler/QE_examples/Tutorials_QE_and_eQE/6_nac_workflow/step2b/PP/Se.pbe-dn-rrkjus_psl.1.0.0.UPF
     MD5 check sum: 497c2ee764913186385bad8d0f9c7a86
     Pseudo is Ultrasoft + core correction, Zval = 16.0
     Generated using "atomic" code by A. Dal Corso v.6.3
     Using radial grid of 1211 points,  6 beta functions with: 
                l(1) =   0
                l(2) =   0
                l(3) =   1
                l(4) =   1
                l(5) =   2
                l(6) =   2
     Q(r) pseudized with 0 coefficients 


     atomic species   valence    mass     pseudopotential
        Cd            12.00   121.41100     Cd( 1.00)
        Se            16.00    78.96000     Se( 1.00)

     Starting magnetic structure 
     atomic species   magnetization
        Cd           0.100
        Se           0.000

     No symmetry found



   Cartesian axes

     site n.     atom                  positions (alat units)
         1           Cd  tau(   1) = (   0.0107246   2.6716548   8.8070991  )
         2           Cd  tau(   2) = (   2.3346435   1.3633104   4.5624453  )
         3           Se  tau(   3) = (  -0.0033553   2.7173657   2.8860400  )
         4           Se  tau(   4) = (   2.3386904   1.3443808   7.1086309  )

     number of k points=     1  gaussian smearing, width (Ry)=  0.0050
                       cart. coord. in units 2pi/alat
        k(    1) = (   0.0000000   0.0000000   0.0000000), wk =   1.0000000

     Dense  grid:    37187 G-vectors     FFT dimensions: (  36,  36,  72)

     Estimated max dynamical RAM per process >      40.32 MB

     Estimated total dynamical RAM >     161.26 MB
     Generating pointlists ...
     new r_m :   0.4125 (alat units)  0.7796 (a.u.) for type    1
     new r_m :   0.4125 (alat units)  0.7796 (a.u.) for type    2

     Initial potential from superposition of free atoms

     starting charge   55.99008, renormalised to   56.00000

     negative rho (up, down):  1.088E-06 6.471E-07
     Starting wfc are   36 randomized atomic wfcs +    4 random wfc

     total cpu time spent up to now is        3.4 secs

     Self-consistent Calculation

     iteration #  1     ecut=    40.00 Ry     beta= 0.45
     Davidson diagonalization with overlap
     ethr =  1.00E-02,  avg # of iterations =  7.0

     Threshold (ethr) on eigenvalues was too large:
     Diagonalizing with lowered threshold

     Davidson diagonalization with overlap
     ethr =  5.12E-04,  avg # of iterations =  1.0

     negative rho (up, down):  1.016E-05 2.951E-05

     total cpu time spent up to now is        4.4 secs

     total energy              =    -717.12499522 Ry
     Harris-Foulkes estimate   =    -717.23565090 Ry
     estimated scf accuracy    <       0.28197502 Ry

     total magnetization       =     1.44 Bohr mag/cell
     absolute magnetization    =     1.44 Bohr mag/cell

     iteration #  2     ecut=    40.00 Ry     beta= 0.45
     Davidson diagonalization with overlap
     ethr =  5.04E-04,  avg # of iterations =  2.0

     negative rho (up, down):  1.675E-05 3.046E-05

     total cpu time spent up to now is        4.9 secs

     total energy              =    -717.14660150 Ry
     Harris-Foulkes estimate   =    -717.21888301 Ry
     estimated scf accuracy    <       0.23132102 Ry

     total magnetization       =     1.65 Bohr mag/cell
     absolute magnetization    =     1.66 Bohr mag/cell

     iteration #  3     ecut=    40.00 Ry     beta= 0.45
     Davidson diagonalization with overlap
     ethr =  4.13E-04,  avg # of iterations =  4.0

     negative rho (up, down):  2.273E-05 3.611E-05

     total cpu time spent up to now is        5.4 secs

     total energy              =    -717.19063583 Ry
     Harris-Foulkes estimate   =    -717.33634078 Ry
     estimated scf accuracy    <       1.14333269 Ry

     total magnetization       =     1.92 Bohr mag/cell
     absolute magnetization    =     1.95 Bohr mag/cell

     iteration #  4     ecut=    40.00 Ry     beta= 0.45
     Davidson diagonalization with overlap
     ethr =  4.13E-04,  avg # of iterations =  1.5

     negative rho (up, down):  3.986E-05 5.542E-05

     total cpu time spent up to now is        5.9 secs

     total energy              =    -717.22035685 Ry
     Harris-Foulkes estimate   =    -717.22340923 Ry
     estimated scf accuracy    <       0.09404681 Ry

     total magnetization       =     2.00 Bohr mag/cell
     absolute magnetization    =     2.02 Bohr mag/cell

     iteration #  5     ecut=    40.00 Ry     beta= 0.45
     Davidson diagonalization with overlap
     ethr =  1.68E-04,  avg # of iterations =  3.0

     negative rho (up, down):  5.368E-05 7.360E-05

     total cpu time spent up to now is        6.5 secs

     total energy              =    -717.22345515 Ry
     Harris-Foulkes estimate   =    -717.24250872 Ry
     estimated scf accuracy    <       0.29282305 Ry

     total magnetization       =     2.00 Bohr mag/cell
     absolute magnetization    =     2.04 Bohr mag/cell

     iteration #  6     ecut=    40.00 Ry     beta= 0.45
     Davidson diagonalization with overlap
     ethr =  1.68E-04,  avg # of iterations =  1.0

     negative rho (up, down):  7.652E-05 1.058E-04

     total cpu time spent up to now is        7.0 secs

     total energy              =    -717.23821125 Ry
     Harris-Foulkes estimate   =    -717.23739899 Ry
     estimated scf accuracy    <       0.03374660 Ry

     total magnetization       =     2.00 Bohr mag/cell
     absolute magnetization    =     2.05 Bohr mag/cell

     iteration #  7     ecut=    40.00 Ry     beta= 0.45
     Davidson diagonalization with overlap
     ethr =  6.03E-05,  avg # of iterations =  1.0

     negative rho (up, down):  7.278E-05 1.071E-04

     total cpu time spent up to now is        7.6 secs

     total energy              =    -717.23873481 Ry
     Harris-Foulkes estimate   =    -717.23892898 Ry
     estimated scf accuracy    <       0.00298909 Ry

     total magnetization       =     2.00 Bohr mag/cell
     absolute magnetization    =     2.08 Bohr mag/cell

     iteration #  8     ecut=    40.00 Ry     beta= 0.45
     Davidson diagonalization with overlap
     c_bands:  1 eigenvalues not converged
     ethr =  5.34E-06,  avg # of iterations = 14.5

     negative rho (up, down):  7.189E-05 1.074E-04

     total cpu time spent up to now is        8.2 secs

     total energy              =    -717.23890103 Ry
     Harris-Foulkes estimate   =    -717.23899954 Ry
     estimated scf accuracy    <       0.00112143 Ry

     total magnetization       =     2.00 Bohr mag/cell
     absolute magnetization    =     2.09 Bohr mag/cell

     iteration #  9     ecut=    40.00 Ry     beta= 0.45
     Davidson diagonalization with overlap
     ethr =  2.00E-06,  avg # of iterations =  3.0

     negative rho (up, down):  7.160E-05 1.084E-04

     total cpu time spent up to now is        8.8 secs

     total energy              =    -717.23896954 Ry
     Harris-Foulkes estimate   =    -717.23901549 Ry
     estimated scf accuracy    <       0.00101699 Ry

     total magnetization       =     2.00 Bohr mag/cell
     absolute magnetization    =     2.09 Bohr mag/cell

     iteration # 10     ecut=    40.00 Ry     beta= 0.45
     Davidson diagonalization with overlap
     ethr =  1.82E-06,  avg # of iterations =  1.0

     negative rho (up, down):  7.162E-05 1.089E-04

     Magnetic moment per site:
     atom:    1    charge:    2.2879    magn:    0.0085    constr:    0.0000
     atom:    2    charge:    2.2796    magn:    0.0084    constr:    0.0000
     atom:    3    charge:    8.0262    magn:    0.0267    constr:    0.0000
     atom:    4    charge:    8.0273    magn:    0.0274    constr:    0.0000

     total cpu time spent up to now is        9.3 secs

     End of self-consistent calculation

 ------ SPIN UP ------------


          k = 0.0000 0.0000 0.0000 (  4621 PWs)   bands (ev):

   -43.9343 -43.9290 -43.9173 -43.8861 -43.8840 -43.8824 -43.8801 -43.8733
   -43.8345 -43.8289  -9.3727  -9.2136  -4.9543  -4.9161  -4.9050  -4.8487
    -4.8436  -4.8123  -4.8021  -4.7999  -4.7812  -4.7769  -1.2171   1.4016
     1.6432   1.6971   2.0664   2.0845   2.1465   4.9670   7.9207   8.2127
     8.2491   8.4697   9.1930   9.2396   9.9950  10.8920  11.0236  11.9444

 ------ SPIN DOWN ----------


          k = 0.0000 0.0000 0.0000 (  4621 PWs)   bands (ev):

   -43.8394 -43.8163 -43.8072 -43.7934 -43.7721 -43.7671 -43.7271 -43.7232
   -43.6807 -43.6751  -8.6496  -8.4675  -4.9246  -4.8659  -4.8590  -4.8114
    -4.8074  -4.8010  -4.7976  -4.7815  -4.7771  -4.7690  -1.0591   1.6754
     2.2646   2.5612   2.6200   3.0471   3.0653   5.0952   8.0734   8.3304
     8.3673   8.6371   9.4138   9.4607  10.0278  11.1810  11.3107  12.0065

     the Fermi energy is     2.8328 ev

!    total energy              =    -717.23899883 Ry
     Harris-Foulkes estimate   =    -717.23900327 Ry
     estimated scf accuracy    <       0.00000817 Ry

     The total energy is the sum of the following terms:

     one-electron contribution =    -608.92362870 Ry
     hartree contribution      =     323.71095990 Ry
     xc contribution           =    -102.42964034 Ry
     ewald contribution        =    -329.59668953 Ry
     smearing contrib. (-TS)   =      -0.00000016 Ry

     total magnetization       =     2.00 Bohr mag/cell
     absolute magnetization    =     2.09 Bohr mag/cell

     convergence has been achieved in  10 iterations

     Writing output data file x0.save

     init_run     :      1.86s CPU      1.96s WALL (       1 calls)
     electrons    :      5.70s CPU      5.98s WALL (       1 calls)

     Called by init_run:
     wfcinit      :      0.06s CPU      0.07s WALL (       1 calls)
     potinit      :      0.50s CPU      0.53s WALL (       1 calls)

     Called by electrons:
     c_bands      :      1.91s CPU      2.04s WALL (      11 calls)
     sum_band     :      2.25s CPU      2.31s WALL (      11 calls)
     v_of_rho     :      0.66s CPU      0.68s WALL (      11 calls)
     newd         :      0.98s CPU      1.00s WALL (      11 calls)
     mix_rho      :      0.04s CPU      0.04s WALL (      11 calls)

     Called by c_bands:
     init_us_2    :      0.04s CPU      0.04s WALL (      46 calls)
     cegterg      :      1.81s CPU      1.94s WALL (      22 calls)

     Called by sum_band:
     sum_band:bec :      0.00s CPU      0.00s WALL (      22 calls)
     addusdens    :      1.92s CPU      1.95s WALL (      11 calls)

     Called by *egterg:
     h_psi        :      1.32s CPU      1.44s WALL (     102 calls)
     s_psi        :      0.04s CPU      0.04s WALL (     102 calls)
     g_psi        :      0.01s CPU      0.01s WALL (      78 calls)
     cdiaghg      :      0.28s CPU      0.29s WALL (      98 calls)

     Called by h_psi:
     h_psi:pot    :      1.31s CPU      1.43s WALL (     102 calls)
     h_psi:calbec :      0.05s CPU      0.05s WALL (     102 calls)
     vloc_psi     :      1.22s CPU      1.34s WALL (     102 calls)
     add_vuspsi   :      0.04s CPU      0.04s WALL (     102 calls)

     General routines
     calbec       :      0.07s CPU      0.07s WALL (     124 calls)
     fft          :      0.18s CPU      0.26s WALL (     277 calls)
     fftw         :      1.34s CPU      1.46s WALL (    4886 calls)

     Parallel routines
     fft_scatt_xy :      0.16s CPU      0.17s WALL (    5163 calls)
     fft_scatt_yz :      0.40s CPU      0.51s WALL (    5163 calls)

     PWSCF        :     8.91s CPU         9.69s WALL


   This run was terminated on:  15: 7:48  12Jul2022            

=------------------------------------------------------------------------------=
   JOB DONE.
=------------------------------------------------------------------------------=
