
     Program PWSCF v.6.2 (svn rev. 14038) starts on 12Jul2022 at 15: 6:39 

     This program is part of the open-source Quantum ESPRESSO suite
     for quantum simulation of materials; please cite
         "P. Giannozzi et al., J. Phys.:Condens. Matter 21 395502 (2009);
         "P. Giannozzi et al., J. Phys.:Condens. Matter 29 465901 (2017);
          URL http://www.quantum-espresso.org", 
     in publications or presentations arising from this work. More details at
     http://www.quantum-espresso.org/quote

     Parallel version (MPI), running on     4 processors

     MPI processes distributed on     1 nodes
     R & G space division:  proc/nbgrp/npool/nimage =       4
     Waiting for input...
     Reading input from standard input
Warning: card &IONS ignored
Warning: card   ION_DYNAMICS = 'VERLET', ignored
Warning: card   ION_TEMPERATURE = 'ANDERSEN', ignored
Warning: card   TEMPW = 300.00 , ignored
Warning: card   NRAISE = 1, ignored
Warning: card / ignored

     Current dimensions of program PWSCF are:
     Max number of different atomic species (ntypx) = 10
     Max number of k-points (npk) =  40000
     Max angular momentum in pseudopotentials (lmaxx) =  3
               file Cd.pbe-n-rrkjus_psl.1.0.0.UPF: wavefunction(s)  4D renormalized

     Subspace diagonalization in iterative solution of the eigenvalue problem:
     a serial algorithm will be used


     Parallelization info
     --------------------
     sticks:   dense  smooth     PW     G-vecs:    dense   smooth      PW
     Min         215     215     52                 9295     9295    1151
     Max         216     216     53                 9298     9298    1158
     Sum         863     863    211                37187    37187    4621



     bravais-lattice index     =            0
     lattice parameter (alat)  =       1.8900  a.u.
     unit-cell volume          =    1089.4295 (a.u.)^3
     number of atoms/cell      =            4
     number of atomic types    =            2
     number of electrons       =        56.00
     number of Kohn-Sham states=           40
     kinetic-energy cutoff     =      40.0000  Ry
     charge density cutoff     =     160.0000  Ry
     convergence threshold     =      1.0E-05
     mixing beta               =       0.4500
     number of iterations used =            8  plain     mixing
     Exchange-correlation      = PBE ( 1  4  3  4 0 0)

     celldm(1)=   1.890000  celldm(2)=   0.000000  celldm(3)=   0.000000
     celldm(4)=   0.000000  celldm(5)=   0.000000  celldm(6)=   0.000000

     crystal axes: (cart. coord. in units of alat)
               a(1) = (   4.716987  -0.015513  -0.002401 )  
               a(2) = (  -2.371927   4.062830  -0.000274 )  
               a(3) = (  -0.002553  -0.001388   8.436361 )  

     reciprocal axes: (cart. coord. in units 2 pi/alat)
               b(1) = (  0.212408  0.124006  0.000085 )  
               b(2) = (  0.000811  0.246607  0.000041 )  
               b(3) = (  0.000060  0.000043  0.118535 )  


     PseudoPot. # 1 for Cd read from file:
     /projects/academic/cyberwksp21/Students/jstetzler/QE_examples/Tutorials_QE_and_eQE/6_nac_workflow/step2b/PP/Cd.pbe-n-rrkjus_psl.1.0.0.UPF
     MD5 check sum: a744746c89d2344a134ead0d8ab94e7a
     Pseudo is Ultrasoft + core correction, Zval = 12.0
     Generated using "atomic" code by A. Dal Corso v.6.3
     Using radial grid of 1239 points,  6 beta functions with: 
                l(1) =   0
                l(2) =   0
                l(3) =   1
                l(4) =   1
                l(5) =   2
                l(6) =   2
     Q(r) pseudized with 0 coefficients 


     PseudoPot. # 2 for Se read from file:
     /projects/academic/cyberwksp21/Students/jstetzler/QE_examples/Tutorials_QE_and_eQE/6_nac_workflow/step2b/PP/Se.pbe-dn-rrkjus_psl.1.0.0.UPF
     MD5 check sum: 497c2ee764913186385bad8d0f9c7a86
     Pseudo is Ultrasoft + core correction, Zval = 16.0
     Generated using "atomic" code by A. Dal Corso v.6.3
     Using radial grid of 1211 points,  6 beta functions with: 
                l(1) =   0
                l(2) =   0
                l(3) =   1
                l(4) =   1
                l(5) =   2
                l(6) =   2
     Q(r) pseudized with 0 coefficients 


     atomic species   valence    mass     pseudopotential
        Cd            12.00   121.41100     Cd( 1.00)
        Se            16.00    78.96000     Se( 1.00)

     Starting magnetic structure 
     atomic species   magnetization
        Cd           0.100
        Se           0.000

     No symmetry found



   Cartesian axes

     site n.     atom                  positions (alat units)
         1           Cd  tau(   1) = (   0.0092665   2.6751941   8.8014941  )
         2           Cd  tau(   2) = (   2.3371762   1.3641923   4.5695865  )
         3           Se  tau(   3) = (  -0.0067072   2.7029656   2.8924239  )
         4           Se  tau(   4) = (   2.3403901   1.3519828   7.0998850  )

     number of k points=     1  gaussian smearing, width (Ry)=  0.0050
                       cart. coord. in units 2pi/alat
        k(    1) = (   0.0000000   0.0000000   0.0000000), wk =   1.0000000

     Dense  grid:    37187 G-vectors     FFT dimensions: (  36,  36,  72)

     Estimated max dynamical RAM per process >      40.32 MB

     Estimated total dynamical RAM >     161.26 MB
     Generating pointlists ...
     new r_m :   0.4125 (alat units)  0.7796 (a.u.) for type    1
     new r_m :   0.4125 (alat units)  0.7796 (a.u.) for type    2

     Initial potential from superposition of free atoms

     starting charge   55.99008, renormalised to   56.00000

     negative rho (up, down):  1.741E-06 9.375E-07
     Starting wfc are   36 randomized atomic wfcs +    4 random wfc

     total cpu time spent up to now is        3.5 secs

     Self-consistent Calculation

     iteration #  1     ecut=    40.00 Ry     beta= 0.45
     Davidson diagonalization with overlap
     ethr =  1.00E-02,  avg # of iterations =  7.0

     Threshold (ethr) on eigenvalues was too large:
     Diagonalizing with lowered threshold

     Davidson diagonalization with overlap
     ethr =  5.11E-04,  avg # of iterations =  1.0

     negative rho (up, down):  1.011E-05 3.035E-05

     total cpu time spent up to now is        4.6 secs

     total energy              =    -717.12551029 Ry
     Harris-Foulkes estimate   =    -717.23597605 Ry
     estimated scf accuracy    <       0.28172224 Ry

     total magnetization       =     1.45 Bohr mag/cell
     absolute magnetization    =     1.45 Bohr mag/cell

     iteration #  2     ecut=    40.00 Ry     beta= 0.45
     Davidson diagonalization with overlap
     ethr =  5.03E-04,  avg # of iterations =  2.0

     negative rho (up, down):  2.074E-05 3.395E-05

     total cpu time spent up to now is        5.1 secs

     total energy              =    -717.18918352 Ry
     Harris-Foulkes estimate   =    -717.21509584 Ry
     estimated scf accuracy    <       0.09932463 Ry

     total magnetization       =     1.67 Bohr mag/cell
     absolute magnetization    =     1.68 Bohr mag/cell

     iteration #  3     ecut=    40.00 Ry     beta= 0.45
     Davidson diagonalization with overlap
     ethr =  1.77E-04,  avg # of iterations =  7.0

     negative rho (up, down):  2.388E-05 3.821E-05

     total cpu time spent up to now is        5.7 secs

     total energy              =    -717.18734935 Ry
     Harris-Foulkes estimate   =    -717.28570008 Ry
     estimated scf accuracy    <       0.87954481 Ry

     total magnetization       =     1.99 Bohr mag/cell
     absolute magnetization    =     2.02 Bohr mag/cell

     iteration #  4     ecut=    40.00 Ry     beta= 0.45
     Davidson diagonalization with overlap
     ethr =  1.77E-04,  avg # of iterations =  2.0

     negative rho (up, down):  4.180E-05 5.938E-05

     total cpu time spent up to now is        6.3 secs

     total energy              =    -717.23188604 Ry
     Harris-Foulkes estimate   =    -717.22197347 Ry
     estimated scf accuracy    <       0.02014970 Ry

     total magnetization       =     2.00 Bohr mag/cell
     absolute magnetization    =     2.02 Bohr mag/cell

     iteration #  5     ecut=    40.00 Ry     beta= 0.45
     Davidson diagonalization with overlap
     ethr =  3.60E-05,  avg # of iterations =  2.0

     negative rho (up, down):  8.146E-05 1.079E-04

     total cpu time spent up to now is        6.8 secs

     total energy              =    -717.23729594 Ry
     Harris-Foulkes estimate   =    -717.23351918 Ry
     estimated scf accuracy    <       0.00975828 Ry

     total magnetization       =     2.00 Bohr mag/cell
     absolute magnetization    =     2.03 Bohr mag/cell

     iteration #  6     ecut=    40.00 Ry     beta= 0.45
     Davidson diagonalization with overlap
     ethr =  1.74E-05,  avg # of iterations =  2.5

     negative rho (up, down):  8.108E-05 1.101E-04

     total cpu time spent up to now is        7.4 secs

     total energy              =    -717.23723996 Ry
     Harris-Foulkes estimate   =    -717.24029412 Ry
     estimated scf accuracy    <       0.04347919 Ry

     total magnetization       =     2.00 Bohr mag/cell
     absolute magnetization    =     2.08 Bohr mag/cell

     iteration #  7     ecut=    40.00 Ry     beta= 0.45
     Davidson diagonalization with overlap
     ethr =  1.74E-05,  avg # of iterations =  1.0

     negative rho (up, down):  7.878E-05 1.103E-04

     total cpu time spent up to now is        7.9 secs

     total energy              =    -717.23925297 Ry
     Harris-Foulkes estimate   =    -717.23934998 Ry
     estimated scf accuracy    <       0.00632171 Ry

     total magnetization       =     2.00 Bohr mag/cell
     absolute magnetization    =     2.08 Bohr mag/cell

     iteration #  8     ecut=    40.00 Ry     beta= 0.45
     Davidson diagonalization with overlap
     ethr =  1.13E-05,  avg # of iterations =  1.0

     negative rho (up, down):  7.606E-05 1.093E-04

     total cpu time spent up to now is        8.5 secs

     total energy              =    -717.23916052 Ry
     Harris-Foulkes estimate   =    -717.23929101 Ry
     estimated scf accuracy    <       0.00291988 Ry

     total magnetization       =     2.00 Bohr mag/cell
     absolute magnetization    =     2.09 Bohr mag/cell

     iteration #  9     ecut=    40.00 Ry     beta= 0.45
     Davidson diagonalization with overlap
     ethr =  5.21E-06,  avg # of iterations =  7.5

     negative rho (up, down):  7.465E-05 1.095E-04

     total cpu time spent up to now is        9.1 secs

     total energy              =    -717.23923629 Ry
     Harris-Foulkes estimate   =    -717.23923244 Ry
     estimated scf accuracy    <       0.00001246 Ry

     total magnetization       =     2.00 Bohr mag/cell
     absolute magnetization    =     2.09 Bohr mag/cell

     iteration # 10     ecut=    40.00 Ry     beta= 0.45
     Davidson diagonalization with overlap
     ethr =  2.22E-08,  avg # of iterations =  8.5

     negative rho (up, down):  7.411E-05 1.096E-04

     Magnetic moment per site:
     atom:    1    charge:    2.2830    magn:    0.0083    constr:    0.0000
     atom:    2    charge:    2.2787    magn:    0.0085    constr:    0.0000
     atom:    3    charge:    8.0242    magn:    0.0268    constr:    0.0000
     atom:    4    charge:    8.0224    magn:    0.0273    constr:    0.0000

     total cpu time spent up to now is        9.7 secs

     End of self-consistent calculation

 ------ SPIN UP ------------


          k = 0.0000 0.0000 0.0000 (  4621 PWs)   bands (ev):

   -43.9290 -43.9196 -43.9119 -43.8942 -43.8910 -43.8876 -43.8765 -43.8727
   -43.8486 -43.8432  -9.3755  -9.2159  -4.9536  -4.9133  -4.9026  -4.8505
    -4.8458  -4.8136  -4.7948  -4.7918  -4.7892  -4.7847  -1.2190   1.3977
     1.6408   1.6988   2.0658   2.0827   2.1480   4.9694   7.9263   8.2081
     8.2507   8.4724   9.2104   9.2256   9.9942  10.8882  11.0241  11.9432

 ------ SPIN DOWN ----------


          k = 0.0000 0.0000 0.0000 (  4621 PWs)   bands (ev):

   -43.8357 -43.8084 -43.8023 -43.8019 -43.7823 -43.7792 -43.7195 -43.7152
   -43.6932 -43.6878  -8.6516  -8.4716  -4.9236  -4.8625  -4.8555  -4.8115
    -4.8086  -4.7935  -4.7906  -4.7897  -4.7846  -4.7705  -1.0614   1.6710
     2.2664   2.5579   2.6207   3.0468   3.0641   5.0975   8.0795   8.3250
     8.3678   8.6399   9.4263   9.4513  10.0260  11.1769  11.3114  12.0058

     the Fermi energy is     2.8329 ev

!    total energy              =    -717.23923897 Ry
     Harris-Foulkes estimate   =    -717.23924032 Ry
     estimated scf accuracy    <       0.00000383 Ry

     The total energy is the sum of the following terms:

     one-electron contribution =    -608.96824079 Ry
     hartree contribution      =     323.73419873 Ry
     xc contribution           =    -102.43063008 Ry
     ewald contribution        =    -329.57456666 Ry
     smearing contrib. (-TS)   =      -0.00000017 Ry

     total magnetization       =     2.00 Bohr mag/cell
     absolute magnetization    =     2.09 Bohr mag/cell

     convergence has been achieved in  10 iterations

     Writing output data file x0.save

     init_run     :      1.93s CPU      1.98s WALL (       1 calls)
     electrons    :      6.00s CPU      6.25s WALL (       1 calls)

     Called by init_run:
     wfcinit      :      0.06s CPU      0.07s WALL (       1 calls)
     potinit      :      0.53s CPU      0.53s WALL (       1 calls)

     Called by electrons:
     c_bands      :      2.05s CPU      2.18s WALL (      11 calls)
     sum_band     :      2.35s CPU      2.38s WALL (      11 calls)
     v_of_rho     :      0.67s CPU      0.68s WALL (      11 calls)
     newd         :      1.03s CPU      1.05s WALL (      11 calls)
     mix_rho      :      0.05s CPU      0.05s WALL (      11 calls)

     Called by c_bands:
     init_us_2    :      0.04s CPU      0.04s WALL (      46 calls)
     cegterg      :      1.95s CPU      2.08s WALL (      22 calls)

     Called by sum_band:
     sum_band:bec :      0.00s CPU      0.00s WALL (      22 calls)
     addusdens    :      2.01s CPU      2.02s WALL (      11 calls)

     Called by *egterg:
     h_psi        :      1.36s CPU      1.47s WALL (     107 calls)
     s_psi        :      0.05s CPU      0.05s WALL (     107 calls)
     g_psi        :      0.01s CPU      0.01s WALL (      83 calls)
     cdiaghg      :      0.32s CPU      0.33s WALL (     103 calls)

     Called by h_psi:
     h_psi:pot    :      1.35s CPU      1.46s WALL (     107 calls)
     h_psi:calbec :      0.05s CPU      0.06s WALL (     107 calls)
     vloc_psi     :      1.24s CPU      1.35s WALL (     107 calls)
     add_vuspsi   :      0.05s CPU      0.05s WALL (     107 calls)

     General routines
     calbec       :      0.08s CPU      0.08s WALL (     129 calls)
     fft          :      0.13s CPU      0.15s WALL (     277 calls)
     fftw         :      1.35s CPU      1.46s WALL (    5006 calls)

     Parallel routines
     fft_scatt_xy :      0.17s CPU      0.18s WALL (    5283 calls)
     fft_scatt_yz :      0.29s CPU      0.33s WALL (    5283 calls)

     PWSCF        :     9.31s CPU        10.11s WALL


   This run was terminated on:  15: 6:49  12Jul2022            

=------------------------------------------------------------------------------=
   JOB DONE.
=------------------------------------------------------------------------------=
